#package gpu 1
#suffix gpu
# variable rho equal 0.03

units lj
atom_style atomic

lattice fcc 0.975
Lattice spacing in x,y,z = 1.60085 1.60085 1.60085
region box block 0 60 0 30 0 30
create_box 2 box
Created orthogonal box = (0 0 0) to (96.0513 48.0256 48.0256)
  1 by 1 by 1 MPI processor grid
create_atoms 1 box
Created 216000 atoms
  Time spent = 0.0394368 secs
mass 1 4.0
mass 2 0.5


pair_style lj/cut 2.5
pair_coeff 1 1 1.0 1.0 2.5
pair_coeff 2 2 0.5 0.88 2.5
pair_coeff 1 2 0.2 1.0 2.5
#pair_coeff 1 2 1.5 0.8 2.5
pair_modify mix geometric
neigh_modify every 1 delay 0 check yes

variable R equal 12
region cylinder1 cylinder x $(0.5*ly) $(0.5*lz) $R EDGE EDGE units box
region cylinder1 cylinder x 24.012813670346833561 $(0.5*lz) $R EDGE EDGE units box
region cylinder1 cylinder x 24.012813670346833561 24.012813670346833561 $R EDGE EDGE units box
region cylinder1 cylinder x 24.012813670346833561 24.012813670346833561 12 EDGE EDGE units box

group cylinder1 region cylinder1
41820 atoms in group cylinder1
variable V equal PI*v_R*v_R*lx
# variable rho equal 0.1
variable natoms equal $V*${rho}
variable natoms equal 43452.5639148185*${rho}
variable natoms equal 43452.5639148185*0.20
variable natoms_in_cylinder equal count(cylinder1)
variable delete_fraction equal (${natoms_in_cylinder}-${natoms})/${natoms_in_cylinder}
variable delete_fraction equal (41820-${natoms})/${natoms_in_cylinder}
variable delete_fraction equal (41820-8690.5127829637)/${natoms_in_cylinder}
variable delete_fraction equal (41820-8690.5127829637)/41820
set group cylinder1 type 2
  41820 settings made for type
delete_atoms porosity cylinder1 ${delete_fraction} 12345
delete_atoms porosity cylinder1 0.79219242508456 12345
Deleted 33172 atoms, new total = 182828
#delete_atoms region cylinder1

region cylinder2 cylinder x $(0.5*ly) $(0.5*lz) $(v_R+6) EDGE EDGE units box
region cylinder2 cylinder x 24.012813670346833561 $(0.5*lz) $(v_R+6) EDGE EDGE units box
region cylinder2 cylinder x 24.012813670346833561 24.012813670346833561 $(v_R+6) EDGE EDGE units box
region cylinder2 cylinder x 24.012813670346833561 24.012813670346833561 18 EDGE EDGE units box
region cylinder3 cylinder x $(0.5*ly) $(0.5*lz) $(v_R+11) EDGE EDGE units box
region cylinder3 cylinder x 24.012813670346833561 $(0.5*lz) $(v_R+11) EDGE EDGE units box
region cylinder3 cylinder x 24.012813670346833561 24.012813670346833561 $(v_R+11) EDGE EDGE units box
region cylinder3 cylinder x 24.012813670346833561 24.012813670346833561 23 EDGE EDGE units box
group cylinder2 region cylinder2
62648 atoms in group cylinder2
group cylinder3 region cylinder3
122408 atoms in group cylinder3

group nve region cylinder3
122408 atoms in group nve
group langevin subtract cylinder3 cylinder2
59760 atoms in group langevin
group frozen subtract all cylinder3
60420 atoms in group frozen

region force cylinder x $(0.5*ly) $(0.5*lz) $(v_R-1) EDGE EDGE units box
region force cylinder x 24.012813670346833561 $(0.5*lz) $(v_R-1) EDGE EDGE units box
region force cylinder x 24.012813670346833561 24.012813670346833561 $(v_R-1) EDGE EDGE units box
region force cylinder x 24.012813670346833561 24.012813670346833561 11 EDGE EDGE units box
group inner dynamic all region cylinder1 every 1
dynamic group inner defined
#group gas dynamic all region force every 1
group gas type 2
8648 atoms in group gas

fix nve nve nve
fix langevin langevin langevin 0.50 0.50 1.0 12345 zero yes

variable gascount equal count(gas)

variable dP equal 0.001
variable measured_rho equal mass(gas)/(PI*(v_R-1)*(v_R-1)*lx)
variable force equal v_dP/v_measured_rho
variable force equal v_dP/v_rho

velocity all create 0.1 87287
velocity frozen set 0 0 0

compute chunk all chunk/atom bin/cylinder x lower $(lx) $(0.5*ly) $(0.5*lz) 0 $(v_R+5) 30 units box
compute chunk all chunk/atom bin/cylinder x lower 96.051254681387334244 $(0.5*ly) $(0.5*lz) 0 $(v_R+5) 30 units box
compute chunk all chunk/atom bin/cylinder x lower 96.051254681387334244 24.012813670346833561 $(0.5*lz) 0 $(v_R+5) 30 units box
compute chunk all chunk/atom bin/cylinder x lower 96.051254681387334244 24.012813670346833561 24.012813670346833561 0 $(v_R+5) 30 units box
compute chunk all chunk/atom bin/cylinder x lower 96.051254681387334244 24.012813670346833561 24.012813670346833561 0 17 30 units box

compute displacement nve displace/atom
compute mean_displacement nve reduce ave c_displacement[4]

compute vmax all reduce max vx
variable volume equal count(gas)/v_V

thermo_style custom step time temp c_mean_displacement v_volume v_force c_vmax dt spcpu cpuremain
thermo 100

compute keAtom all ke/atom
dump dump all custom 1000 trajectory.bin id type x y z c_keAtom

fix flow gas addforce v_force 0.0 0.0
run 5000
No /omp style for force computation currently active
Per MPI rank memory allocation (min/avg/max) = 90.86 | 90.86 | 90.86 Mbytes
Step Time Temp c_mean_displacement v_volume v_force c_vmax Dt S/CPU CPULeft 
       0            0  0.067042671            0   0.19902163        0.005   0.77494152        0.005            0            0 
     100          0.5   0.10077638  0.075853462   0.19902163        0.005    1.9673247        0.005    94.870081    51.649628 
     200            1   0.14830681     0.124682   0.19902163        0.005    2.2888776        0.005    94.827634    50.606855 
     300          1.5   0.17334506   0.17296444   0.19902163        0.005     2.430429        0.005    93.124785    49.858336 
     400            2    0.1914885   0.21266468   0.19902163        0.005     3.397474        0.005     93.87273    48.848769 
     500          2.5   0.20389757   0.24479779   0.19902163        0.005    3.0278853        0.005    94.182803    47.785356 
     600            3   0.21228715   0.26962177   0.19902163        0.005    2.9006723        0.005    95.542559    46.611679 
     700          3.5   0.21818504   0.28560048   0.19902163        0.005    2.8083406        0.005    95.190051    45.498103 
     800            4   0.22368937   0.29335126   0.19902163        0.005    2.9459729        0.005    94.268661    44.454197 
     900          4.5   0.23082133   0.29453631   0.19902163        0.005    2.8346152        0.005    93.759541    43.432776 
    1000            5   0.23618968    0.2915192   0.19902163        0.005    3.2621732        0.005    92.543323    42.458396 
    1100          5.5    0.2416409   0.28763767   0.19902163        0.005    2.8461522        0.005    92.521745    41.465601 
    1200            6   0.24540114   0.28595209   0.19902163        0.005    3.3175113        0.005    94.559972     40.38436 
    1300          6.5   0.24864515   0.28704507   0.19902163        0.005    3.2076992        0.005    94.096469    39.321594 
    1400            7   0.25205471   0.29235729   0.19902163        0.005    3.1237612        0.005    93.518776    38.275712 
    1500          7.5   0.25623512   0.30102012   0.19902163        0.005    2.9111482        0.005    92.881917    37.243815 
    1600            8   0.25983839   0.31164374   0.19902163        0.005    3.4672789        0.005    92.215784    36.222852 
    1700          8.5   0.26163156   0.32232298   0.19902163        0.005    3.2099164        0.005    92.537585    35.187104 
    1800            9   0.26760722   0.33233644   0.19902163        0.005     3.119903        0.005    92.867665     34.13954 
    1900          9.5   0.27018491     0.341518   0.19902163        0.005     3.131233        0.005    93.449038    33.077967 
    2000           10   0.27413027   0.35026526   0.19902163        0.005    3.0414521        0.005    92.448004    32.032923 
    2100         10.5   0.27771671    0.3588378   0.19902163        0.005    3.0284101        0.005    93.978612     30.96006 
    2200           11   0.28044959   0.36791898   0.19902163        0.005    3.5418334        0.005    93.738189     29.89147 
    2300         11.5   0.28282496   0.37871676   0.19902163        0.005     3.696058        0.005    93.972948    28.819907 
    2400           12   0.28505228   0.39012421   0.19902163        0.005    3.2481544        0.005    94.469477    27.742904 
    2500         12.5   0.28637255   0.40095368   0.19902163        0.005    3.3030383        0.005      94.0841    26.671713 
    2600           13   0.28984963     0.410773   0.19902163        0.005    3.3127393        0.005    93.253486    25.609901 
    2700         13.5   0.28974705   0.41972381   0.19902163        0.005    2.9714301        0.005     93.95051    24.540531 
    2800           14   0.29088804   0.42736874   0.19902163        0.005    3.4569295        0.005    94.954875    23.462671 
    2900         14.5   0.29383301   0.43344554   0.19902163        0.005    3.2880106        0.005    93.486071    22.398498 
    3000           15   0.29450791   0.43872001   0.19902163        0.005    3.2458617        0.005    92.330051    21.342887 
    3100         15.5   0.29628338   0.44318992   0.19902163        0.005    3.9278219        0.005    92.883706    20.281547 
    3200           16   0.29735267   0.44753364   0.19902163        0.005    3.4522028        0.005     92.83827    19.219548 
    3300         16.5   0.29830501   0.45166317   0.19902163        0.005    3.2528872        0.005    93.268541    18.154073 
    3400           17   0.29880782   0.45608315   0.19902163        0.005     3.216777        0.005    93.839001    17.085137 
    3500         17.5   0.30107823   0.46151787   0.19902163        0.005     3.886771        0.005    93.905349    16.016064 
    3600           18   0.30057506   0.46762053   0.19902163        0.005    3.6848428        0.005    94.459307    14.944795 
    3700         18.5   0.30252903   0.47326729   0.19902163        0.005    3.6483752        0.005    93.291921    13.878863 
    3800           19   0.30263114   0.47964118   0.19902163        0.005    3.6149757        0.005     94.08754    12.809753 
    3900         19.5   0.30352747   0.48605622   0.19902163        0.005    3.5313652        0.005    93.187269    11.743861 
    4000           20   0.30480148   0.49279156   0.19902163        0.005    3.4476447        0.005    92.418711    10.679839 
    4100         20.5   0.30619751   0.49925493   0.19902163        0.005    3.0948914        0.005    92.519786      9.61468 
    4200           21   0.30899308   0.50547024   0.19902163        0.005    3.3102285        0.005    94.346652    8.5447865 
    4300         21.5   0.30937024   0.51243244   0.19902163        0.005    3.3826229        0.005    93.563649    7.4768009 
    4400           22   0.31085773    0.5194018   0.19902163        0.005    3.3377801        0.005      92.9135    6.4097985 
    4500         22.5   0.31057315   0.52601351   0.19902163        0.005    3.6438535        0.005    92.873279    5.3424362 
    4600           23   0.31203349   0.53210657   0.19902163        0.005    3.6685648        0.005    92.438102    4.2751071 
    4700         23.5   0.31173466   0.53921604   0.19902163        0.005    3.8866089        0.005    94.017647    3.2060018 
    4800           24   0.31251248   0.54581972   0.19902163        0.005    3.7581295        0.005    93.291506    2.1374696 
    4900         24.5   0.31261027   0.55258849   0.19902163        0.005    3.3600222        0.005    93.316662    1.0687937 
    5000           25   0.31417192   0.55813356   0.19902163        0.005    4.2537537        0.005     92.00868            0 
Loop time of 53.4578 on 4 procs for 5000 steps with 182828 atoms

Performance: 40405.731 tau/day, 93.532 timesteps/s
216.7% CPU use with 1 MPI tasks x 4 OpenMP threads

MPI task timing breakdown:
Section |  min time  |  avg time  |  max time  |%varavg| %total
---------------------------------------------------------------
Pair    | 17.774     | 17.774     | 17.774     |   0.0 | 33.25
Neigh   | 0.40642    | 0.40642    | 0.40642    |   0.0 |  0.76
Comm    | 4.9099     | 4.9099     | 4.9099     |   0.0 |  9.18
Output  | 0.17611    | 0.17611    | 0.17611    |   0.0 |  0.33
Modify  | 26.681     | 26.681     | 26.681     |   0.0 | 49.91
Other   |            | 3.511      |            |       |  6.57

Nlocal:    182828 ave 182828 max 182828 min
Histogram: 1 0 0 0 0 0 0 0 0 0
Nghost:    67158 ave 67158 max 67158 min
Histogram: 1 0 0 0 0 0 0 0 0 0
Neighs:    0 ave 0 max 0 min
Histogram: 1 0 0 0 0 0 0 0 0 0

Total # of neighbors = 0
Ave neighs/atom = 0
Neighbor list builds = 620
Dangerous builds = 0

reset_timestep 0
fix vx all ave/chunk 10 10000 100000 chunk vx ave running file velocity.txt

fix dt all dt/reset 10 NULL NULL 0.05 units box

run 100000
No /omp style for force computation currently active
Per MPI rank memory allocation (min/avg/max) = 100.9 | 100.9 | 100.9 Mbytes
Step Time Temp c_mean_displacement v_volume v_force c_vmax Dt S/CPU CPULeft 
       0           25   0.31417192   0.55813356   0.19902163        0.005    4.2537537 0.0092495174            0            0 
     100    26.165372   0.31477732   0.57065823   0.19902163        0.005    3.2136265  0.013075677    79.785595    1252.1076 
     200    27.351932   0.31612517   0.58247782   0.19902163        0.005    3.4296885  0.011246346    80.592134    1244.5939 
     300    28.493526   0.31886504   0.59435649   0.19902163        0.005    3.5605996  0.011408432    80.198367    1243.2869 
     400    29.691927   0.32029958   0.60661728   0.19902163        0.005    3.5734198  0.012066851    80.610055    1240.4244 
     500    30.832609   0.31994926   0.61978459   0.19902163        0.005      3.72737  0.011753596    79.640478    1241.2161 
     600    31.985242   0.32008173   0.63348981   0.19902163        0.005    3.4188504   0.01085754    80.777394    1238.3976 
     700    33.143359   0.32195825   0.64734897   0.19902163        0.005    3.6406862  0.011834761    80.839576    1235.8956 
     800    34.284642   0.32342358   0.66053979   0.19902163        0.005    3.8582618  0.012193193    80.382111    1234.5828 
     900    35.468267   0.32341432   0.67350632   0.19902163        0.005    3.6102773  0.011721721    79.917581    1234.0815 
    1000    36.583109   0.32389806   0.68660677   0.19902163        0.005    3.9019019  0.011771575     78.93382    1234.9741 
    1100    37.740327   0.32366175   0.70022857   0.19902163        0.005    3.8072253  0.011258152    78.242744    1236.4802 
    1200    38.868929   0.32583356   0.71287654   0.19902163        0.005    3.4996215   0.01114718    79.485885    1235.8765 
    1300    39.984679   0.32428191   0.72591797   0.19902163        0.005    3.4929917  0.010523072    78.529107    1236.3358 
    1400    41.082301   0.32659738    0.7393512   0.19902163        0.005    3.5022316  0.011390518    80.684006    1234.1523 
    1500    42.241617   0.32617886   0.75356164   0.19902163        0.005    3.7076107  0.010722739    80.540199    1232.2401 
    1600    43.339439   0.32698293   0.76619699   0.19902163        0.005    3.7053115  0.011677139    79.698619    1231.2179 
    1700    44.479453   0.32724885   0.77967896   0.19902163        0.005    3.6413845  0.011201147    80.413642    1229.5233 
    1800    45.623776   0.32638825    0.7934092   0.19902163        0.005    3.4021212  0.011207383    78.715244    1229.3427 
    1900    46.741246   0.32662472   0.80539911   0.19902163        0.005    3.6801053   0.01170457    80.454147    1227.6296 
    2000    47.885251    0.3272891   0.81904198   0.19902163        0.005    4.0600317 0.0099821727    77.612822    1228.1932 
    2100    48.976038   0.32834911   0.83102625   0.19902163        0.005     3.923473  0.011042949    79.919819    1226.8465 
    2200    50.121298   0.32802511   0.84484707   0.19902163        0.005    3.4843052  0.012542442    80.252642    1225.2778 
    2300    51.299711   0.32829602   0.85937018   0.19902163        0.005    4.2550838  0.011665354    79.859257    1223.9979 
    2400    52.457935   0.32905629   0.87328569   0.19902163        0.005    4.3168446   0.01129943      79.2484    1223.1128 
    2500    53.552039   0.32894585   0.88711604   0.19902163        0.005    3.4275027  0.010850992    78.940861    1222.3893 
    2600    54.653619   0.32991359   0.90172722   0.19902163        0.005    4.3482545  0.010885496    80.354915    1220.7889 
    2700    55.766834   0.33052966   0.91618189   0.19902163        0.005    4.0432826  0.011256369    80.603502    1219.0766 
    2800    56.891818   0.32919384   0.93084937   0.19902163        0.005    3.6399073  0.010980815    79.184904    1218.1695 
    2900    58.020609   0.33130819    0.9451877   0.19902163        0.005    3.9684643  0.011600686    79.609278    1217.0125 
    3000    59.129964   0.33075891   0.95908167   0.19902163        0.005     3.404914  0.011077769    79.320443    1215.9967 
    3100    60.296138    0.3302919     0.974484   0.19902163        0.005    3.5714538  0.010817497    79.254435     1214.998 
    3200    61.418346   0.33032811   0.98816132   0.19902163        0.005    3.6375438  0.010896913     78.93887    1214.1354 
    3300     62.41235   0.33043503      1.00085   0.19902163        0.005    3.7602761  0.010724872    79.975685    1212.7671 
    3400    63.525408    0.3298529    1.0137178   0.19902163        0.005      4.11686  0.011383646    80.246393    1211.2859 
    3500    64.623778   0.32980219    1.0269367   0.19902163        0.005    4.0757202  0.011158358    79.222924     1210.262 
    3600    65.722908   0.32964853    1.0403817   0.19902163        0.005    3.5258024  0.011649929    79.160574    1209.2514 
    3700     66.84677   0.33173621    1.0533424   0.19902163        0.005    3.9498006  0.010912033    80.094441    1207.8438 
    3800    67.981222   0.33149773    1.0670864   0.19902163        0.005    3.9595829  0.011714559    79.513897    1206.6754 
    3900    69.098657   0.33128485    1.0806132   0.19902163        0.005    4.0722489  0.011472021    80.334307     1205.186 
    4000    70.169244   0.33169675    1.0928455   0.19902163        0.005    3.8811224  0.011158671    78.921002    1204.2437 
    4100    71.241814   0.33194627    1.1063304   0.19902163        0.005    3.5209051  0.010979862    78.691335    1203.3721 
    4200    72.328906   0.33310069    1.1200417   0.19902163        0.005    3.7116092  0.010687401     81.32143    1201.5441 
    4300    73.338653   0.33226677    1.1331773   0.19902163        0.005    3.6697075  0.010764064     80.69332    1199.9569 
    4400     74.40836   0.33257349    1.1467244   0.19902163        0.005    3.9975288  0.011256111    79.022707    1198.9547 
    4500    75.459807   0.33357732    1.1599084   0.19902163        0.005    3.9283565  0.010535643    78.908292    1197.9798 
    4600     76.52955   0.33278453    1.1727512   0.19902163        0.005    4.1074983  0.011401842    79.276365    1196.8702 
    4700    77.627635   0.33319657    1.1871344   0.19902163        0.005     3.590825  0.011216951    78.760992    1195.9214 
    4800    78.723496   0.33251637    1.2019958   0.19902163        0.005    3.5569881   0.01175754    79.664832    1194.6736 
    4900    79.834438   0.33220357     1.217211   0.19902163        0.005    3.7687681 0.0098654886    79.242636    1193.5553 
    5000    80.870453    0.3315128    1.2302432   0.19902163        0.005    3.9745113  0.010484806    79.608387    1192.3211 
    5100    81.935253   0.33255206    1.2436247   0.19902163        0.005    4.2112594  0.010744938    79.623923    1191.0814 
    5200    83.037386   0.33405369    1.2569742   0.19902163        0.005    3.6278182  0.011553107    79.801838    1189.7901 
    5300    84.141863   0.33261667    1.2720138   0.19902163        0.005    3.9344279  0.010261957    78.916443    1188.7514 
    5400    85.204981   0.33366156    1.2864025   0.19902163        0.005     3.664212  0.011388287    79.501749    1187.5408 
    5500    86.319611   0.33248759    1.3007028   0.19902163        0.005    3.6623013  0.011973706     78.65723    1186.5606 
    5600    87.436033   0.33182971    1.3135683   0.19902163        0.005    3.6385616   0.01085199    79.642489    1185.3049 
    5700     88.49901   0.33197918    1.3269822   0.19902163        0.005    4.3073044  0.010898438     79.65589    1184.0456 
    5800    89.586308   0.33395611    1.3411259   0.19902163        0.005    3.9610683  0.010222746     79.79534    1182.7509 
    5900    90.649846   0.33416901    1.3543974   0.19902163        0.005    4.5075746 0.0098555907    79.831016    1181.4486 
    6000    91.732333   0.33309747    1.3679979   0.19902163        0.005    3.9196509  0.011696091    78.459375     1180.491 
    6100     92.81082   0.33376777    1.3816501   0.19902163        0.005    3.7042024  0.011647576    78.854471    1179.4248 
    6200    93.914338   0.33331503    1.3948806   0.19902163        0.005    4.4637543  0.010452857    79.642308    1178.1623 
    6300    94.970598   0.33357065    1.4073865   0.19902163        0.005    4.0745542 0.0097854429    80.373439    1176.7301 
    6400    96.069533   0.33262074    1.4200464   0.19902163        0.005     4.250946  0.011041937    80.276803    1175.3256 
    6500    97.165148   0.33410154    1.4327134   0.19902163        0.005    3.9607846  0.010196749    79.953046    1173.9987 
    6600     98.25881   0.33466756    1.4452859   0.19902163        0.005    3.5903677  0.011875647    78.554345    1172.9892 
    6700    99.337454    0.3345213    1.4576404   0.19902163        0.005    3.4969975  0.010477926    80.743293    1171.4912 
    6800    100.40182   0.33404784    1.4709209   0.19902163        0.005    3.8497659  0.011585187    78.820166     1170.415 
    6900    101.49877   0.33493365    1.4840339   0.19902163        0.005    3.5044664   0.01060944     80.30902    1169.0159 
    7000    102.60725   0.33461616    1.4975576   0.19902163        0.005     4.046129  0.011338306    79.633175    1167.7616 
    7100    103.68308   0.33372953    1.5103314   0.19902163        0.005     4.256467  0.010445058    79.468144    1166.5414 
    7200    104.78728   0.33409099    1.5236737   0.19902163        0.005    3.8182341  0.010854476      79.1213    1165.3912 
    7300    105.85174    0.3342465    1.5371159   0.19902163        0.005    3.9475076  0.010862756    80.431375    1163.9765 
    7400    106.95674   0.33370115    1.5510878   0.19902163        0.005    3.9251553  0.011415949    78.007439    1163.0499 
    7500    108.07953   0.33384463    1.5652216   0.19902163        0.005    3.5818934  0.011103238     76.76818     1162.369 
    7600    109.16538   0.33385554     1.579307   0.19902163        0.005    3.8510695  0.010772025    77.864579    1161.4487 
    7700    110.25915   0.33381821    1.5932562   0.19902163        0.005     5.090081 0.0090862587    77.649577    1160.5616 
    7800    111.31674   0.33262733    1.6068058   0.19902163        0.005    3.9085679  0.011527705    77.917795    1159.6119 
    7900    112.42897   0.33350007    1.6209622   0.19902163        0.005    3.7840311  0.011946975    76.976783    1158.8366 
    8000    113.57925   0.33386307    1.6351421   0.19902163        0.005    3.5858395  0.010217232    76.840329    1158.0747 
    8100    114.58222   0.33405151    1.6468078   0.19902163        0.005    3.7769788  0.011017815    77.334374    1157.2052 
    8200    115.69901   0.33275064    1.6612999   0.19902163        0.005    4.3755488  0.010977055    78.572799    1156.0972 
    8300    116.81788   0.33380013    1.6752014   0.19902163        0.005    3.9686671  0.010927626    78.753302     1154.953 
    8400    117.85897   0.33478683    1.6892389   0.19902163        0.005    3.8707081 0.0097172277     80.05335    1153.5809 
    8500    118.94581     0.333027     1.704075   0.19902163        0.005    4.0764931  0.010469727    79.288939    1152.3414 
    8600    119.97655   0.33450958    1.7174577   0.19902163        0.005    3.9147065  0.011021428    79.691184    1151.0337 
    8700    120.97942   0.33448327    1.7305681   0.19902163        0.005    4.3025196  0.010052659    78.978141    1149.8461 
    8800    122.01859   0.33406778    1.7448214   0.19902163        0.005    4.2777002  0.010625585    78.938068    1148.6633 
    8900    123.03881   0.33471545    1.7589677   0.19902163        0.005    4.6462481  0.010180085    78.304124    1147.5837 
    9000    124.08964   0.33407627     1.773404   0.19902163        0.005    4.5870332  0.010315289    79.596981      1146.29 
    9100    125.15023   0.33343703    1.7883969   0.19902163        0.005    4.5297765  0.010891614    78.586946    1145.1583 
    9200     126.2319   0.33380285    1.8018674   0.19902163        0.005    4.0049712  0.010894031    80.555311    1143.7168 
    9300    127.29282   0.33452891    1.8152396   0.19902163        0.005    4.2447524  0.010782798    79.178566      1142.49 
    9400    128.39415   0.33387188    1.8289919   0.19902163        0.005    4.2892219  0.011233599    81.827848    1140.8684 
    9500    129.50107   0.33410576    1.8442374   0.19902163        0.005    3.7479151  0.011180896    81.550363    1139.2948 
    9600    130.60399   0.33458113    1.8587657   0.19902163        0.005    3.8107166  0.011340778    80.598561    1137.8648 
    9700    131.68291   0.33367936    1.8734197   0.19902163        0.005     4.013724  0.011879135     81.70382    1136.2824 
    9800    132.75094   0.33450152    1.8877508   0.19902163        0.005    4.3079282  0.011220897    80.865589    1134.8241 
    9900    133.84397   0.33381582    1.9019133   0.19902163        0.005    3.9703867 0.0097623764    80.979061    1133.3546 
   10000    134.88792     0.335182    1.9171876   0.19902163        0.005    3.8021887   0.01159555    81.188071    1131.8611 
   10100    135.99433   0.33383141    1.9341864   0.19902163        0.005    4.1105508  0.010569044    80.221544    1130.5049 
   10200    137.07162   0.33544003    1.9513174   0.19902163        0.005    3.6307974  0.010662079    81.015553    1129.0433 
   10300    138.15829   0.33393757    1.9675337   0.19902163        0.005    3.9318492  0.010299298    81.912961    1127.4683 
   10400    139.24762   0.33452951    1.9848067   0.19902163        0.005    3.5508672  0.010882193     81.70842    1125.9265 
   10500    140.29172    0.3337112    2.0008398   0.19902163        0.005    4.0352873  0.010104714    81.431965    1124.4261 
   10600     141.3106   0.33462753     2.015757   0.19902163        0.005    4.1775659  0.010632273    80.449487    1123.0574 
   10700    142.35947   0.33440596    2.0313961   0.19902163        0.005    3.6776287   0.01052253     79.48709    1121.8166 
   10800    143.45641   0.33425269    2.0476789   0.19902163        0.005    4.0769796 0.0099090052      79.9098    1120.5205 
   10900    144.52492   0.33500668    2.0631941   0.19902163        0.005    4.6401437  0.009825278    79.153866     1119.323 
   11000    145.57574   0.33413306    2.0784114   0.19902163        0.005    4.5657651  0.010806374    78.181621    1118.2514 
   11100    146.61592   0.33400148    2.0942169   0.19902163        0.005    4.2589278  0.010674196    79.434116    1117.0145 
   11200    147.67623    0.3339704    2.1105478   0.19902163        0.005    3.7633537   0.01139653    80.251797    1115.6755 
   11300    148.74995   0.33454895    2.1267867   0.19902163        0.005    4.2648675  0.010914387    79.014162    1114.4913 
   11400    149.82281   0.33601635    2.1440565   0.19902163        0.005    4.0004456  0.010521091    80.028361    1113.1811 
   11500    150.90595   0.33585586    2.1603672   0.19902163        0.005    3.6223658  0.011200126      79.8147    1111.8977 
   11600    151.97893   0.33568766    2.1766517   0.19902163        0.005    3.7788593  0.011213048    79.437832    1110.6601 
   11700    153.06088   0.33468165    2.1927023   0.19902163        0.005    3.7185846  0.011683304    80.023108    1109.3526 
   11800    154.13909   0.33415766     2.208333   0.19902163        0.005    4.0279908  0.011600071     79.63446    1108.0918 
   11900     155.2251   0.33410783    2.2234036   0.19902163        0.005    4.2525995  0.010449214    78.467991    1106.9692 
   12000    156.24712   0.33416353    2.2394508   0.19902163        0.005    4.3136649 0.0098877165    77.569761    1105.9522 
   12100    157.26563   0.33427084    2.2551396   0.19902163        0.005    4.3939465  0.011131252    78.694745     1104.797 
   12200    158.34152   0.33523267    2.2727959   0.19902163        0.005     3.968046  0.010703884    79.400552    1103.5585 
   12300     159.4168   0.33545986    2.2902302   0.19902163        0.005    4.1228116  0.009044539    78.984641     1102.367 
   12400    160.30389   0.33544851    2.3039008   0.19902163        0.005    4.0603408 0.0096557806    79.580761    1101.1072 
   12500    161.32466   0.33569276    2.3204451   0.19902163        0.005    4.3113922  0.010763254    79.366537    1099.8713 
   12600    162.39587   0.33555565    2.3374954   0.19902163        0.005    4.1239594  0.010806788    79.873218    1098.5795 
   12700    163.39364   0.33465847    2.3538097   0.19902163        0.005    4.0063891  0.009180404    79.410083    1097.3386 
   12800    164.36593   0.33494617    2.3692488   0.19902163        0.005    4.5587769  0.010039053     78.50243    1096.1966 
   12900    165.38824   0.33418632    2.3852117   0.19902163        0.005    3.7137872  0.010869719    79.521209    1094.9423 
   13000     166.4389   0.33548532    2.4013261   0.19902163        0.005    4.1789372  0.010940396    79.481095    1093.6922 
   13100    167.53565   0.33588846    2.4182805   0.19902163        0.005     3.734975  0.010945433    79.576458     1092.432 
   13200    168.63025   0.33585367    2.4353058   0.19902163        0.005    4.2453333  0.011101608    79.010589    1091.2311 
   13300     169.7164   0.33613373    2.4510637   0.19902163        0.005    4.0626878  0.010765747    78.983704    1090.0319 
   13400    170.82633    0.3350775    2.4688329   0.19902163        0.005    4.4874086  0.010460994    80.255221    1088.7022 
   13500    171.91889   0.33394428     2.487526   0.19902163        0.005    4.0087329  0.011239632     80.00325    1087.3988 
   13600    172.97985   0.33494919    2.5047995   0.19902163        0.005    4.0317952   0.01067647    80.865464    1086.0115 
   13700    174.04476   0.33645144    2.5209022   0.19902163        0.005    4.2625927  0.010794015     78.60381    1084.8506 
   13800    175.05741   0.33512302    2.5373964   0.19902163        0.005    4.2427754    0.0112358    79.753205    1083.5735 
   13900    176.10681   0.33521877    2.5533557   0.19902163        0.005    3.8337921   0.01109786    79.017898    1082.3691 
   14000     177.1538   0.33547025    2.5688226   0.19902163        0.005    3.9333125 0.0097169856    78.650682    1081.2001 
   14100    178.23784   0.33462053    2.5856673   0.19902163        0.005    3.6456663  0.010805585    78.294359    1080.0648 
   14200    179.34017   0.33584871    2.6022799   0.19902163        0.005    4.0235808  0.010293171    80.580119    1078.7087 
   14300     180.3867   0.33478011    2.6192695   0.19902163        0.005    4.7349396 0.0092719572    79.364765     1077.468 
   14400    181.43515   0.33470028    2.6369739   0.19902163        0.005    4.1057768  0.010891306    79.522234    1076.2123 
   14500     182.4736   0.33506783    2.6542173   0.19902163        0.005    3.7813882  0.011278353    79.366086    1074.9711 
   14600    183.51307   0.33688587    2.6712226   0.19902163        0.005    3.9952633  0.010445835    78.982454    1073.7655 
   14700    184.54478   0.33561651    2.6891117   0.19902163        0.005    4.3724508 0.0099123628    79.175308    1072.5411 
   14800    185.57016   0.33472956    2.7054528   0.19902163        0.005    4.0598726 0.0081175541    81.257875    1071.1299 
   14900    186.56784   0.33573255    2.7217093   0.19902163        0.005     3.769908 0.0094598248    80.231841     1069.811 
   15000    187.60608   0.33456267    2.7391407   0.19902163        0.005    3.8066944  0.010707012    80.213044    1068.4947 
   15100    188.67825   0.33540287    2.7564269   0.19902163        0.005    4.2046554  0.010782577    78.769364    1067.3078 
   15200    189.76563   0.33548428    2.7745005   0.19902163        0.005    4.0702225  0.010799516    79.157511    1066.0851 
   15300     190.8557   0.33659912    2.7926622   0.19902163        0.005    4.3051019  0.011054227     79.67143    1064.8167 
   15400    191.93568   0.33534275    2.8100805   0.19902163        0.005    3.9961005  0.010023747    79.756784    1063.5411 
   15500    193.01576   0.33639571    2.8277477   0.19902163        0.005    3.8497077  0.011028076    80.022024    1062.2432 
   15600    194.12324   0.33554879    2.8461872   0.19902163        0.005    4.4285207  0.010461923    78.495819    1061.0773 
   15700    195.23679   0.33455747    2.8634227   0.19902163        0.005    3.7035561  0.011420987    79.820062    1059.7966 
   15800    196.31778   0.33526914     2.880763   0.19902163        0.005     4.107271  0.011077617    79.008535    1058.5848 
   15900    197.38603   0.33431799    2.8988961   0.19902163        0.005    3.8966762  0.010800858    80.029842    1057.2869 
   16000    198.46312   0.33514413    2.9172403   0.19902163        0.005    4.0258712  0.010964485    79.259138    1056.0533 
   16100     199.5487   0.33629917    2.9356132   0.19902163        0.005    4.0729414  0.010193805    78.522962    1054.8811 
   16200    200.62655   0.33492629     2.955136   0.19902163        0.005      3.83492  0.011053142    80.688368    1053.5308 
   16300    201.68688   0.33454157    2.9731184   0.19902163        0.005    4.1268743  0.011755389    78.327667    1052.3737 
   16400    202.76198   0.33640431    2.9911242   0.19902163        0.005    3.5590141  0.010206002    78.054939    1051.2379 
   16500    203.82263   0.33647849    3.0098137   0.19902163        0.005    4.5307728  0.010208793    78.522388    1050.0617 
   16600    204.89235   0.33570823    3.0285303   0.19902163        0.005    4.1001127  0.011494383     78.52993    1048.8837 
   16700    205.97297    0.3363068    3.0475821   0.19902163        0.005    3.6254333 0.0093635206    79.915418    1047.5945 
   16800    206.99286   0.33682253    3.0643556   0.19902163        0.005    4.2075081  0.010617006    80.844531    1046.2345 
   16900    208.06899   0.33612971     3.082595   0.19902163        0.005    4.0029241  0.010870205    79.598189    1044.9712 
   17000    209.10396   0.33596436    3.1002023   0.19902163        0.005    4.3828074  0.010652964    78.222038    1043.8159 
   17100    210.14013    0.3355876     3.117793   0.19902163        0.005    4.1170835  0.010808666    78.766642    1042.6163 
   17200    211.21043   0.33719431    3.1371241   0.19902163        0.005    3.8174344  0.010302132    79.035393     1041.395 
   17300    212.25278   0.33652623    3.1560754   0.19902163        0.005    4.0306653  0.010675409    79.972544    1040.1025 
   17400    213.30077   0.33601341    3.1749315   0.19902163        0.005    4.3224306  0.010634216    79.812544    1038.8222 
   17500    214.32207   0.33672803    3.1933229   0.19902163        0.005    4.8211267 0.0098113838    79.693531    1037.5512 
   17600    215.33297   0.33581166    3.2108263   0.19902163        0.005    3.6173587  0.010719714    79.061763    1036.3272 
   17700    216.39997   0.33609055    3.2288972   0.19902163        0.005    3.8846331  0.010175182    79.736285    1035.0531 
   17800    217.45366   0.33556497    3.2479825   0.19902163        0.005    4.0156628  0.011000753    79.300887    1033.8109 
   17900    218.50639   0.33635446    3.2664523   0.19902163        0.005    3.5181675  0.010618553    79.970516    1032.5202 
   18000    219.55039   0.33557776     3.285164   0.19902163        0.005    4.2577468  0.010557761    80.550175    1031.1888 
   18100    220.62082   0.33528973    3.3041553   0.19902163        0.005    4.2446956  0.011400609    79.273099     1029.949 
   18200    221.69633   0.33568142    3.3241785   0.19902163        0.005    4.1297035  0.011040707    80.501368    1028.6224 
   18300    222.77999   0.33571658    3.3439175   0.19902163        0.005    4.3885931   0.01004009    79.210117    1027.3872 
   18400    223.81959   0.33578542    3.3626216   0.19902163        0.005     4.512808  0.010229427    80.203197    1026.0823 
   18500    224.86505   0.33665923    3.3821233   0.19902163        0.005    4.5033816 0.0096144189    80.229339    1024.7763 
   18600    225.90228   0.33507709    3.4028561   0.19902163        0.005    4.5583743 0.0096842546    79.438012    1023.5252 
   18700    226.98642   0.33543655    3.4234596   0.19902163        0.005    3.7782395  0.011264655    80.832456    1022.1797 
   18800    228.05306   0.33485763    3.4434777   0.19902163        0.005    4.0949828 0.0098028751    79.093892    1020.9528 
   18900    229.15261   0.33562497    3.4624131   0.19902163        0.005    3.8317062  0.011130131     79.30705    1019.7108 
   19000    230.22609    0.3374465    3.4831836   0.19902163        0.005    3.8641805  0.011391913    77.583851    1018.5881 
   19100    231.30096   0.33552238    3.5034491   0.19902163        0.005    4.1443857  0.010628207    78.736685    1017.3837 
   19200      232.376   0.33654733    3.5235411   0.19902163        0.005    4.8106196  0.009813443    79.516038    1016.1262 
   19300     233.3855   0.33660548    3.5419671   0.19902163        0.005    5.0944564 0.0083635185    80.278017    1014.8188 
   19400    234.37271   0.33627909    3.5606693   0.19902163        0.005    4.5534015  0.010454617    80.288651    1013.5114 
   19500    235.43588   0.33609359    3.5799341   0.19902163        0.005    3.9185229  0.010377599    80.777145    1012.1735 
   19600    236.44219    0.3358498    3.5997928   0.19902163        0.005     4.970726 0.0095255015    81.116613    1010.8153 
   19700    237.44168    0.3369428    3.6186481   0.19902163        0.005    3.7021893  0.010343887    80.548118     1009.494 
   19800    238.50437   0.33609712    3.6391337   0.19902163        0.005    4.1523001  0.010820761     81.41088    1008.1201 
   19900    239.58797   0.33539267    3.6602135   0.19902163        0.005    4.2786664  0.010379868    80.456678    1006.8063 
   20000    240.62569   0.33694027    3.6799073   0.19902163        0.005    3.9719816  0.010161572     80.58368    1005.4854 
   20100    241.62096   0.33584664    3.6991619   0.19902163        0.005     3.776489  0.010816271    81.211021    1004.1272 
   20200    242.68767   0.33558529    3.7211785   0.19902163        0.005    3.9449613  0.010838239    80.952194    1002.7858 
   20300    243.78303   0.33549645    3.7425615   0.19902163        0.005    4.1560201  0.010799989     82.15327    1001.3745 
   20400    244.82953   0.33575077    3.7632437   0.19902163        0.005    3.8021145  0.010014163    81.392996    1000.0096 
   20500    245.83868   0.33718948    3.7821451   0.19902163        0.005    3.8445417  0.010403878    81.567729    998.63569 
   20600    246.87024   0.33508701    3.8025065   0.19902163        0.005    4.2504713   0.01002269    78.971777    997.41858 
   20700    247.87508   0.33576426    3.8221179   0.19902163        0.005    4.2358221    0.0103514    78.650918     996.2208 
   20800    248.82799   0.33514556    3.8408707   0.19902163        0.005    5.2361892 0.0088862446    78.158646    995.05279 
   20900    249.76114   0.33594811    3.8585986   0.19902163        0.005    4.2703319 0.0099904013    78.825128    993.84278 
   21000    250.79366   0.33649811    3.8781172   0.19902163        0.005    4.1739122   0.01019904    79.135781    992.61347 
   21100    251.84177   0.33615041    3.8982964   0.19902163        0.005    3.9253872   0.01048046     80.46929    991.30554 
   21200    252.91519   0.33564966    3.9179579   0.19902163        0.005    3.7693294   0.01016683    80.815464    989.97843 
   21300    253.98583   0.33533762    3.9384158   0.19902163        0.005    3.8986791  0.010588219    81.319522    988.62383 
   21400    254.98063   0.33626655    3.9569772   0.19902163        0.005    4.0589792   0.01001496    79.205106    987.39097 
   21500    256.00774   0.33674999    3.9761206   0.19902163        0.005    4.5693678 0.0099001964    79.594126     986.1353 
   21600    257.06609   0.33563851     3.994528   0.19902163        0.005    3.8970084  0.011348286    81.113915    984.79418 
   21700    258.10301   0.33566933     4.014127   0.19902163        0.005    4.0144648  0.010783546    81.007151    983.45992 
   21800    259.16995   0.33699371    4.0347119   0.19902163        0.005    4.5061562  0.010770906    81.304783    982.11037 
   21900    260.22842   0.33578289    4.0551371   0.19902163        0.005    4.3004039  0.011119709    80.534554    980.80386 
   22000    261.27836   0.33650751    4.0760965   0.19902163        0.005    4.0417952  0.010654526    80.606802      979.494 
   22100    262.34725   0.33618351    4.0965399   0.19902163        0.005    4.7949821  0.010042951    79.230706    978.26071 
   22200    263.41093   0.33699173    4.1166886   0.19902163        0.005    3.9757661  0.010588036    80.871342    976.93742 
   22300     264.4988   0.33717623    4.1372854   0.19902163        0.005    3.9606199  0.011384493    79.373145    975.69624 
   22400    265.58736   0.33665233    4.1577641   0.19902163        0.005    4.1781294  0.011758925    79.951064    974.42335 
   22500     266.6626   0.33590152    4.1795504   0.19902163        0.005    4.2111685  0.010225335    80.509279    973.12078 
   22600    267.74352   0.33618632    4.2006582   0.19902163        0.005    3.7528919  0.010462469    80.591143    971.81442 
   22700    268.79466   0.33657428    4.2212382   0.19902163        0.005    4.8193972  0.010150561    80.145482    970.53214 
   22800    269.83791   0.33635597    4.2424867   0.19902163        0.005     4.137508  0.010045782    81.869231    969.16121 
   22900    270.89737   0.33505012    4.2645626   0.19902163        0.005    3.7090403  0.010505138    81.764615    967.79684 
   23000    271.90076   0.33529336    4.2849203   0.19902163        0.005    4.1256604     0.010741    79.942196    966.52705 
   23100    272.95815   0.33564609    4.3064777   0.19902163        0.005    4.4764644  0.010916099    81.081033    965.19893 
   23200    273.98112   0.33559971    4.3270636   0.19902163        0.005    4.6444987  0.010358354      81.4893    963.85117 
   23300    275.02037   0.33637685    4.3480625   0.19902163        0.005    4.8185344  0.010265202    81.335654    962.51207 
   23400    276.01199   0.33588876    4.3685382   0.19902163        0.005    4.1111469 0.0099595651     82.04759      961.139 
   23500    277.02955   0.33724773    4.3887744   0.19902163        0.005    4.1306511  0.011084841    81.084513    959.81436 
   23600    278.12286   0.33735487    4.4106552   0.19902163        0.005     4.213732  0.010774165    81.020467    958.49365 
   23700    279.19183   0.33631629    4.4316715   0.19902163        0.005    4.1172813  0.010583647    81.785278    957.13651 
   23800    280.24035   0.33777033    4.4525401   0.19902163        0.005    4.2183772  0.011218598    81.331096    955.80236 
   23900    281.32608   0.33677642    4.4737601   0.19902163        0.005    3.9131272  0.010680991    81.166138    954.47704 
   24000    282.31735   0.33629689     4.493029   0.19902163        0.005    4.3436801  0.010431162    79.153119    953.25172 
   24100    283.37234   0.33700055    4.5142379   0.19902163        0.005    4.1194585  0.011432795    82.117049    951.88248 
   24200    284.43106   0.33632227    4.5349096   0.19902163        0.005    4.3169355  0.010263837    80.669683    950.58292 
   24300    285.49627   0.33584335    4.5557506   0.19902163        0.005    4.9207002 0.0099839717     81.19453    949.25889 
   24400    286.56556   0.33694094    4.5766961   0.19902163        0.005    3.8486725  0.009635771    77.482021    948.11847 
   24500    287.58249   0.33586748    4.5968639   0.19902163        0.005    4.1065956 0.0099331098    80.380555    946.83339 
   24600    288.64268   0.33538663    4.6171192   0.19902163        0.005    4.2659576  0.010499891     78.85204    945.62257 
   24700    289.72218   0.33532947    4.6376464   0.19902163        0.005    4.2203987  0.010352951    80.325153    944.34038 
   24800    290.77904    0.3350562    4.6574459   0.19902163        0.005    4.9644679 0.0092907679    79.897288     943.0787 
   24900    291.81101   0.33471825    4.6760354   0.19902163        0.005    4.4692983  0.010770038    78.264352    941.89587 
   25000    292.85048   0.33515581    4.6961012   0.19902163        0.005     3.703159  0.011234968    77.906984    940.72986 
   25100    293.94873   0.33519351    4.7179325   0.19902163        0.005    3.8867019  0.010201231     81.23622    939.40594 
   25200     294.9973   0.33500325    4.7389403   0.19902163        0.005     4.163567  0.010140602    80.560634     938.1134 
   25300    296.03394   0.33506408    4.7597828   0.19902163        0.005    4.0893089  0.011031709      81.8754    936.76241 
   25400    297.10766    0.3350592    4.7816152   0.19902163        0.005    4.3205108 0.0099920367    79.913058    935.50052 
   25500    298.15745   0.33686763    4.8023432   0.19902163        0.005    3.7661394  0.010224356    81.343604    934.17443 
   25600    299.20099   0.33649071    4.8236983   0.19902163        0.005    4.2520655  0.010367725    80.564069    932.88366 
   25700    300.26158   0.33510096    4.8443711   0.19902163        0.005    3.8947234  0.010181254    79.488415    931.64184 
   25800    301.29188   0.33588452    4.8640293   0.19902163        0.005    4.2247196 0.0097575638    81.541327     930.3088 
   25900    302.34532   0.33524327    4.8833378   0.19902163        0.005    4.3339023  0.010971481    80.884099    929.00509 
   26000    303.43107   0.33470181    4.9025665   0.19902163        0.005    3.9324492  0.011031191    79.608266     927.7583 
   26100    304.49912   0.33517651    4.9223197   0.19902163        0.005    4.0085292  0.010922243    78.984566    926.53952 
   26200    305.53997   0.33412519    4.9420095   0.19902163        0.005    4.1342372  0.010278499    80.291433    925.26233 
   26300    306.56002    0.3360072    4.9603445   0.19902163        0.005    4.4051546   0.01052532    80.713506    923.96713 
   26400    307.56715   0.33474233    4.9796381   0.19902163        0.005    3.9355439  0.010607377    78.287389     922.7794 
   26500    308.53355   0.33405122    4.9977472   0.19902163        0.005    4.1087523   0.01064445    77.143875    921.64351 
   26600    309.59759   0.33526182    5.0175334   0.19902163        0.005    4.5398643 0.0097087181    77.069938    920.50985 
   26700    310.64764   0.33567968    5.0380161   0.19902163        0.005    4.2905774  0.010225658    76.997103    919.37832 
   26800     311.7089   0.33469908    5.0582613   0.19902163        0.005    3.7978037  0.010988563    77.626008    918.21681 
   26900     312.7962   0.33401696    5.0788744   0.19902163        0.005    4.4203457  0.010484495    77.088281    917.07878 
   27000    313.86831    0.3349846    5.0994356   0.19902163        0.005    3.9788484  0.010477302    79.097845    915.85046 
   27100    314.91301   0.33536602    5.1191076   0.19902163        0.005     3.861379   0.01099951    80.849315     914.5482 
   27200    316.00775   0.33578521    5.1404213   0.19902163        0.005    4.3051892  0.010581396    79.133257    913.31821 
   27300    316.99896    0.3352538    5.1586552   0.19902163        0.005    3.9047381  0.010051528     81.08492    912.00698 
   27400    318.05932   0.33667479    5.1784623   0.19902163        0.005    3.8837402 0.0099026757    79.791332    910.74928 
   27500    319.07746   0.33526389    5.1980968   0.19902163        0.005     4.035208  0.010426128    81.298495    909.43038 
   27600    320.06956    0.3361529    5.2167077   0.19902163        0.005     4.272756 0.0096491888    79.466443     908.1865 
   27700    321.07199   0.33538551    5.2360536   0.19902163        0.005    3.9683944  0.010407054    80.500703    906.90032 
   27800    322.13694    0.3349085    5.2562184   0.19902163        0.005    4.6509424  0.010572235    80.576482    905.61142 
   27900    323.14997   0.33513475    5.2756221   0.19902163        0.005    4.5587541 0.0098755917    79.846882    904.35217 
   28000    324.11604   0.33459151    5.2934892   0.19902163        0.005    4.6160728 0.0093279998    78.301726    903.15651 
   28100    325.09074    0.3348383    5.3120702   0.19902163        0.005    3.5753245  0.010421771    79.512872    901.91051 
   28200     326.1437    0.3361794    5.3323392   0.19902163        0.005    4.0530948  0.011086201    81.780063    900.57564 
   28300    327.17897   0.33592002    5.3514155   0.19902163        0.005    3.7513589   0.01000916    80.466773    899.29214 
   28400    328.15034   0.33763065    5.3694668   0.19902163        0.005    3.9366295  0.010859046    80.106633      898.023 
   28500    329.19415   0.33536825    5.3895934   0.19902163        0.005    4.0360647   0.01067773    79.516098    896.77727 
   28600    330.26421   0.33523573    5.4095658   0.19902163        0.005      4.05497  0.011172809    78.264293    895.58168 
   28700    331.32149   0.33538778    5.4300082   0.19902163        0.005    3.9881549  0.010292955    78.232499     894.3868 
   28800    332.35367   0.33514124     5.449286   0.19902163        0.005    3.9335783  0.010615024    77.312678    893.22894 
   28900    333.42729   0.33629102    5.4690092   0.19902163        0.005    4.0559867   0.01071234    78.463558    892.02346 
   29000     334.4615   0.33631037    5.4890421   0.19902163        0.005     3.746146 0.0096631964    79.615111    890.77238 
   29100    335.47336   0.33544513    5.5085305   0.19902163        0.005    4.2563689  0.010659259    79.779555    889.51496 
   29200     336.5342   0.33629035    5.5289512   0.19902163        0.005    4.3148231   0.01055365    80.179019    888.24242 
   29300     337.5846   0.33602379    5.5494926   0.19902163        0.005    3.8612301  0.010204476    81.241758    886.93069 
   29400    338.58906   0.33550708    5.5694414   0.19902163        0.005    3.7980336   0.01118989    81.241239    885.61953 
   29500    339.61243   0.33528673    5.5899953   0.19902163        0.005    4.6177147  0.010506853    81.963319    884.28299 
   29600    340.67323   0.33624521    5.6107657   0.19902163        0.005     4.333356  0.010562171    81.854628     882.9511 
   29700    341.76557   0.33533358    5.6317302   0.19902163        0.005    4.1157836  0.010491469    80.558112    881.66648 
   29800    342.81272   0.33510391    5.6519171   0.19902163        0.005    3.7366391  0.010919548    81.108331    880.36232 
   29900    343.84481   0.33558228    5.6726785   0.19902163        0.005    3.9279361 0.0097318509    80.341094    879.08625 
   30000    344.91999   0.33547938    5.6931834   0.19902163        0.005    4.3021097  0.011313773    77.662488    877.91055 
   30100    345.97971   0.33706673    5.7140641   0.19902163        0.005    3.9558962  0.011106587    79.375158    876.66958 
   30200    347.03654   0.33683225    5.7344531   0.19902163        0.005    4.2441583  0.010780002    80.566019    875.38546 
   30300    348.05758   0.33645684    5.7537904   0.19902163        0.005    4.0482419 0.0097963861    80.953632    874.08794 
   30400    349.07395   0.33704875    5.7731055   0.19902163        0.005    4.1616717  0.010861136    80.927032    872.79176 
   30500    350.12624   0.33676527    5.7926978   0.19902163        0.005    4.2900652  0.011298323     80.95096    871.49515 
   30600    351.16645   0.33637573    5.8123247   0.19902163        0.005    3.8522327 0.0099373148    80.363491    870.21942 
   30700     352.1794   0.33580579     5.830879   0.19902163        0.005    4.0470163 0.0098208397    79.220784    868.98441 
   30800    353.18477   0.33555089    5.8481051   0.19902163        0.005    4.8535973  0.010022763    81.512881    867.66948 
   30900    354.19716    0.3360502    5.8664083   0.19902163        0.005    4.3896821  0.010723262    81.827768    866.34455 
   31000    355.17207   0.33628415    5.8842457   0.19902163        0.005    4.1339995 0.0097090097    78.866347    865.12243 
   31100    356.16333   0.33595476    5.9019441   0.19902163        0.005    3.6984854  0.010237511    79.192873    863.88844 
   31200    357.18914   0.33608689    5.9203462   0.19902163        0.005    4.2599771  0.010280422     80.66129    862.60357 
   31300    358.19193   0.33500592    5.9390357   0.19902163        0.005    4.3790962  0.010501142    81.206855     861.3007 
   31400    359.22264   0.33494739    5.9580619   0.19902163        0.005    3.8992468  0.010512572    79.840073    860.04435 
   31500    360.23938   0.33626504    5.9769574   0.19902163        0.005     4.140618 0.0099025632    80.124094    858.77836 
   31600    361.27905   0.33511951    5.9962514   0.19902163        0.005    4.7269329  0.010414717    80.758606    857.49127 
   31700    362.27251   0.33487437    6.0146512   0.19902163        0.005    4.2545349 0.0099157554    79.586031    856.24379 
   31800     363.2694   0.33509433    6.0323249   0.19902163        0.005    4.1413569  0.010152805    80.641331    854.96098 
   31900    364.34529   0.33538391    6.0527516   0.19902163        0.005    4.0371777  0.010832955    79.568925    853.71413 
   32000    365.41235   0.33569705     6.072756   0.19902163        0.005    4.5829756 0.0098646335    79.423391    852.47211 
   32100    366.44624   0.33544337    6.0929899   0.19902163        0.005    4.3909344  0.010500989     79.41506    851.23026 
   32200    367.33079   0.33672953    6.1100055   0.19902163        0.005    5.3057186 0.0090608691    80.587319    849.94973 
   32300    368.17664   0.33576423    6.1269748   0.19902163        0.005    5.8385283 0.0084141642     80.39379    848.67571 
   32400     369.0098   0.33619112    6.1422394   0.19902163        0.005    5.8297662 0.0084555873    80.244335    847.40671 
   32500    369.86514    0.3361793    6.1589154   0.19902163        0.005    4.1578451  0.010242441    81.089576    846.11087 
   32600    370.87336   0.33510023    6.1783267   0.19902163        0.005    4.1810114  0.010509394    80.606368     844.8307 
   32700    371.94954   0.33377159    6.1989962   0.19902163        0.005    3.9520659    0.0110963    80.435571     843.5562 
   32800    373.00573   0.33383505    6.2195177   0.19902163        0.005    4.1563404  0.010854935    81.118715    842.26043 
   32900    374.00272   0.33375443    6.2387029   0.19902163        0.005      3.81413 0.0092616727    80.576807    840.98196 
   33000    375.01383   0.33511711    6.2579551   0.19902163        0.005    4.0606146  0.010136187    80.495342    839.70626 
   33100    376.01098   0.33425292    6.2767981   0.19902163        0.005    4.2357082  0.010404139    79.962771    838.44749 
   33200    377.00679   0.33495898    6.2955185   0.19902163        0.005    3.7622806  0.010672035    80.561995    837.17005 
   33300    378.04965   0.33679398    6.3149908   0.19902163        0.005    4.2025913  0.010670042    81.135113    835.87526 
   33400    379.07208   0.33604124    6.3346289   0.19902163        0.005     4.209965  0.011169795    80.732538    834.59311 
   33500     380.1221   0.33655102    6.3545078   0.19902163        0.005    4.2487114  0.010318251    81.109507    833.29978 
   33600    381.16347   0.33739497    6.3736568   0.19902163        0.005    3.8341669  0.011024208    80.856438    832.01445 
   33700     382.2479   0.33718015     6.394536   0.19902163        0.005    4.6643361  0.010355135    79.123181     830.7827 
   33800    383.28884   0.33734802    6.4151176   0.19902163        0.005    3.9543991   0.00990172    80.314002    829.51405 
   33900    384.28954   0.33786128    6.4341033   0.19902163        0.005    4.1650528  0.010053651    79.813683    828.26077 
   34000    385.33697   0.33734327    6.4536217   0.19902163        0.005    3.9235864  0.011007181    79.187789    827.02671 
   34100     386.4226   0.33704693    6.4738591   0.19902163        0.005    3.8822248  0.010782094    79.887442    825.77111 
   34200    387.46481   0.33745132    6.4927716   0.19902163        0.005     3.714409  0.010651829    80.453823    824.49857 
   34300    388.50059   0.33663931    6.5120389   0.19902163        0.005    3.5665023   0.01147541    80.548504    823.22341 
   34400    389.60092    0.3364313    6.5321347   0.19902163        0.005    3.9644743  0.010467368    80.299949    821.95578 
   34500    390.63868   0.33720112    6.5517849   0.19902163        0.005    3.9680797  0.011182488    81.146635     820.6636 
   34600    391.66266   0.33653093    6.5713307   0.19902163        0.005    4.1050312  0.010299429      80.4656    819.39149 
   34700    392.74804   0.33782385    6.5912262   0.19902163        0.005     3.913252  0.010471434    78.117799    818.18983 
   34800    393.78839   0.33545547    6.6103428   0.19902163        0.005     4.041011 0.0099813779    78.686123     816.9704 
   34900    394.87358   0.33492584    6.6305494   0.19902163        0.005    4.0659578  0.011047875    78.557744    815.75455 
   35000    395.92263   0.33591004    6.6499349   0.19902163        0.005    4.2588838  0.010024351    75.914001     814.6207 
   35100    396.95852   0.33552467    6.6685437   0.19902163        0.005    4.3869608  0.010826263     76.94724     813.4531 
   35200    398.01642   0.33508607    6.6876253   0.19902163        0.005    4.6948052  0.010020208    77.730695    812.26063 
   35300    399.06959   0.33500279    6.7075086   0.19902163        0.005    4.0441251  0.010868151    77.957505    811.06078 
   35400    400.14246   0.33521235    6.7277138   0.19902163        0.005    3.9343498  0.010835763    77.063042    809.88762 
   35500    401.23653   0.33428207    6.7482911   0.19902163        0.005      4.06432  0.011407691    76.641034    808.72675 
   35600    402.27706   0.33528993     6.767423   0.19902163        0.005    3.8717664  0.010515219    78.845695    807.49907 
   35700    403.36501   0.33434434    6.7880957   0.19902163        0.005    3.9531882  0.010559869    79.644985    806.24823 
   35800     404.4379   0.33586398    6.8073027   0.19902163        0.005    4.1243185  0.010473151    81.071113    804.95776 
   35900    405.49291   0.33562745    6.8264418   0.19902163        0.005    4.0872271  0.011155023     80.70262    803.67767 
   36000    406.49247   0.33609975     6.844148   0.19902163        0.005    4.0052869  0.010116853    81.757666    802.36937 
   36100    407.53257    0.3348199    6.8621443   0.19902163        0.005    3.9189113  0.010549719    76.998474    801.19537 
   36200    408.58457   0.33574107    6.8804396   0.19902163        0.005    4.0525178  0.010784604    77.162992     800.0158 
   36300    409.63453   0.33634963    6.8987239   0.19902163        0.005    4.1427873 0.0099553874    79.760409    798.76152 
   36400    410.63632   0.33468796    6.9156784   0.19902163        0.005    4.1305078 0.0088863686    80.033538    797.49978 
   36500    411.54152    0.3365011    6.9311349   0.19902163        0.005    4.8933656 0.0090433674    79.783637     796.2449 
   36600     412.5358   0.33725953    6.9485091   0.19902163        0.005    3.7348401 0.0087583717    79.819348    794.98907 
   36700    413.50967   0.33535346    6.9654539   0.19902163        0.005    4.2351057  0.009800226    81.118652    793.69864 
   36800    414.51866   0.33694617    6.9819122   0.19902163        0.005    3.8245886  0.011162159    80.904709    792.41412 
   36900    415.60271   0.33653325    7.0007674   0.19902163        0.005    4.2603502  0.010261818    78.607021    791.19165 
   37000    416.61352   0.33628302    7.0168986   0.19902163        0.005    4.3039479 0.0094103297    78.177103    789.98082 
   37100    417.62603   0.33647143    7.0330854   0.19902163        0.005    3.9909734   0.01091546    80.259521    788.71335 
   37200    418.70584   0.33608464    7.0506171   0.19902163        0.005    4.0947804  0.010553451    80.940009    787.42832 
   37300    419.70929   0.33572344     7.066511   0.19902163        0.005     3.803262  0.011277546    81.945784    786.11806 
   37400     420.7859   0.33539039    7.0842731   0.19902163        0.005    4.3560504  0.010735771    81.015491    784.83174 
   37500     421.7999   0.33610287    7.1015126   0.19902163        0.005    3.9013741  0.010841862     82.61329     783.5059 
   37600    422.85327    0.3364831    7.1191192   0.19902163        0.005     4.341894  0.011047043    81.820058    782.20016 
   37700    423.95452    0.3359011    7.1377591   0.19902163        0.005    4.0384623   0.01066323    82.089406    780.88823 
   37800    424.97086   0.33780714    7.1544158   0.19902163        0.005    4.1496363  0.010643387    76.530601    779.72239 
   37900    426.01603    0.3379923    7.1719605   0.19902163        0.005     4.117301  0.010674334    74.793868    778.60553 
   38000    427.05403    0.3373783    7.1892554   0.19902163        0.005     3.986866  0.010529458    70.396847    777.62376 
   38100    428.06869   0.33699982    7.2057095   0.19902163        0.005    4.3358458  0.010196116    80.737045    776.34412 
   38200    429.08984   0.33654942    7.2234115   0.19902163        0.005     4.485337  0.010401191    84.092831    774.98472 
   38300    430.15942   0.33645917    7.2409284   0.19902163        0.005    3.8055363   0.01140146    83.386976    773.64243 
   38400    431.21734   0.33644348    7.2593096   0.19902163        0.005     4.043208  0.010375968    82.684183    772.31724 
   38500    432.26688    0.3351193    7.2779687   0.19902163        0.005    4.6676407 0.0095298206    84.144218    770.95912 
   38600    433.30415   0.33603286    7.2968181   0.19902163        0.005    3.9138051  0.010861662    84.282054     769.5988 
   38700    434.35394   0.33591742    7.3160337   0.19902163        0.005    4.0928207  0.011081457    85.509199     768.2124 
   38800    435.39225   0.33701482    7.3350573   0.19902163        0.005    5.5173015 0.0090576496    84.589202    766.84718 
   38900    436.43266   0.33615096    7.3537208   0.19902163        0.005    4.2939216  0.010240026    85.025696    765.47337 
   39000    437.46768   0.33622709    7.3717836   0.19902163        0.005    3.8582768  0.011384179    82.423508    764.15865 
   39100    438.54017   0.33513511    7.3905127   0.19902163        0.005    4.2914806  0.010721795    86.305038    762.75946 
   39200    439.55117   0.33593947    7.4081516   0.19902163        0.005     4.123597  0.010583339    87.306432    761.34089 
   39300    440.52062   0.33566711    7.4258463   0.19902163        0.005    4.0685996 0.0089977476    86.513495    759.93992 
   39400    441.47145   0.33602019    7.4419729   0.19902163        0.005    4.2875074 0.0093327237    85.312297    758.56523 
   39500    442.47947   0.33698267     7.459143   0.19902163        0.005    3.7202493  0.010341691     86.34512    757.17009 
   39600    443.55904   0.33610381    7.4789632   0.19902163        0.005    3.9975294  0.011092767    86.668181    755.76956 
   39700    444.66214    0.3363984    7.4978896   0.19902163        0.005    4.1549559  0.009750012    85.455835    754.39513 
   39800    445.72518   0.33648917    7.5167441   0.19902163        0.005    3.9028589   0.01102243    86.492479    753.00052 
   39900     446.7815   0.33695716    7.5353002   0.19902163        0.005    4.5121039  0.010613914    85.303708    751.63137 
   40000    447.84043   0.33581637    7.5534202   0.19902163        0.005    4.7044226  0.010456828    84.836572    750.27289 
   40100    448.87588   0.33634385    7.5709407   0.19902163        0.005    4.1831791  0.010892099    85.376011    748.90418 
   40200    449.93106   0.33660107    7.5887407   0.19902163        0.005    4.1327626  0.010217551    86.094826    747.52191 
   40300    451.00765   0.33696265    7.6070941   0.19902163        0.005    4.0784007  0.011345504      86.3432    746.13578 
   40400    452.09213    0.3366005    7.6254388   0.19902163        0.005    4.0460149  0.010232455    85.394836    744.76975 
   40500    453.13698   0.33611045    7.6444056   0.19902163        0.005    4.4390138  0.010606126    86.482296    743.38306 
   40600    454.22155   0.33787337    7.6644708   0.19902163        0.005    4.1963834  0.010244736    84.698029    742.03314 
   40700    455.28705   0.33672422    7.6834936   0.19902163        0.005    3.8900818  0.011068416     84.98769    740.67818 
   40800    456.37079   0.33656086    7.7029744   0.19902163        0.005    4.3427122  0.011019125    85.811642    739.30771 
   40900    457.41323   0.33719967    7.7214109   0.19902163        0.005    4.7272761 0.0099176282    85.561494    737.94317 
   41000    458.41033    0.3369525    7.7389568   0.19902163        0.005    3.7207972  0.010927931    84.445838    736.60179 
   41100    459.42289   0.33749822    7.7568236   0.19902163        0.005    3.6831711  0.010191716    85.163204    735.24689 
   41200    460.47808   0.33604496    7.7760421   0.19902163        0.005    4.1421966  0.010297645    85.936719    733.87778 
   41300    461.48817    0.3368674    7.7940596   0.19902163        0.005    3.9469527  0.010201897    86.298325    732.50274 
   41400    462.48205   0.33700302    7.8120303   0.19902163        0.005    4.3472935  0.010357608     85.45789    731.14487 
   41500    463.52227   0.33714199    7.8304949   0.19902163        0.005    4.2024341 0.0099298428    85.670564    729.78382 
   41600    464.58198   0.33759713    7.8491257   0.19902163        0.005    4.0488645  0.010865835    85.436426    728.42818 
   41700    465.64515   0.33773018    7.8674526   0.19902163        0.005    4.5333327  0.010461953     84.65085    727.08862 
   41800    466.70233   0.33658404    7.8859512   0.19902163        0.005    4.1931125  0.010262797    85.934941    725.72523 
   41900    467.76625   0.33722743    7.9036809   0.19902163        0.005    3.7995863  0.010464038    85.090675    724.37882 
   42000    468.74716   0.33673464    7.9205207   0.19902163        0.005    4.8885661 0.0098193396    84.113978    723.05206 
   42100    469.75377   0.33752397    7.9376522   0.19902163        0.005     4.239543  0.010494089    86.877354    721.67395 
   42200    470.76128   0.33658693    7.9553611   0.19902163        0.005     4.655142  0.009523266    85.534571    720.32166 
   42300    471.74155    0.3362584    7.9723158   0.19902163        0.005    4.5741958 0.0098552944    86.232022    718.95734 
   42400    472.79112   0.33517333    7.9895076   0.19902163        0.005    3.8725493  0.011055644    85.211165    717.61287 
   42500    473.84569   0.33694586    8.0067301   0.19902163        0.005    4.0065812  0.011083682    86.559701    716.24445 
   42600    474.91139    0.3364577    8.0249657   0.19902163        0.005    4.1398191  0.011070776    85.734762    714.89202 
   42700    475.98563   0.33565426    8.0438679   0.19902163        0.005    3.9715387  0.011556394    86.187812    713.53224 
   42800    477.04747   0.33635614    8.0624118   0.19902163        0.005    4.1384502   0.01000206    85.801636    712.18036 
   42900    478.09128    0.3373679    8.0802926   0.19902163        0.005    3.8482435 0.0098314011    86.100304    710.82397 
   43000    479.10569   0.33751501    8.0990533   0.19902163        0.005    3.9970883  0.010273121    85.758725    709.47462 
   43100    480.11234   0.33819965    8.1162393   0.19902163        0.005    4.4054928 0.0095648572    84.232799    708.15401 
   43200    481.13333   0.33729468    8.1343146   0.19902163        0.005    3.7818309  0.011264972    86.667894    706.79016 
   43300    482.18881   0.33817739     8.153184   0.19902163        0.005     4.117828  0.010557161    85.673136    705.44482 
   43400    483.28529   0.33779822    8.1735833   0.19902163        0.005    3.9816925  0.011268636     85.60316    704.10155 
   43500    484.37098   0.33797837    8.1926996   0.19902163        0.005    3.6731461  0.010731975     86.71726    702.73959 
   43600    485.45012   0.33776601    8.2103011   0.19902163        0.005    3.7616102   0.01161225    86.159077    701.38825 
   43700      486.515   0.33643206    8.2287102   0.19902163        0.005    4.4336859  0.010537553    85.915525    700.04202 
   43800    487.57275   0.33875476    8.2469825   0.19902163        0.005    3.6165987  0.010219323    84.917677    698.71418 
   43900    488.61761   0.33786998    8.2647742   0.19902163        0.005    4.1865738  0.010247975    85.881063    697.37013 
   44000     489.6534    0.3381025    8.2821108   0.19902163        0.005    4.0018207  0.010112463    85.642627    696.03104 
   44100    490.68934   0.33737586    8.2992604   0.19902163        0.005    3.9580556   0.01089516    85.105005    694.70206 
   44200    491.73568   0.33738001    8.3166434   0.19902163        0.005     4.202809  0.010231637    86.070144    693.35715 
   44300    492.76893   0.33829796    8.3338318   0.19902163        0.005    4.4383239 0.0093610686    86.073112    692.01302 
   44400     493.6935   0.33585459    8.3494069   0.19902163        0.005     5.273401 0.0087624676    84.791175     690.6917 
   44500    494.64734   0.33576388    8.3653298   0.19902163        0.005    3.8142517  0.010531188    86.432734    689.34309 
   44600    495.71411   0.33688739    8.3822046   0.19902163        0.005    3.7885986    0.0117735     85.49041    688.01117 
   44700    496.78081   0.33700987    8.3989839   0.19902163        0.005     4.060201  0.010239404    86.580679    686.66176 
   44800    497.81896   0.33620149    8.4159991   0.19902163        0.005    4.4375305  0.010612365    87.506906    685.29816 
   44900    498.86492   0.33627194    8.4329682   0.19902163        0.005    4.0140076  0.010341902    85.970927    683.96059 
   45000    499.90975   0.33659983    8.4504021   0.19902163        0.005    4.4249154  0.010863956    85.528047    682.63116 
   45100    500.96086    0.3352846    8.4683002   0.19902163        0.005    4.1614995 0.0098221201    85.146815    681.30881 
   45200    501.96432   0.33595817    8.4846934   0.19902163        0.005    3.8810183  0.010126101    86.399369    679.96647 
   45300    503.00806    0.3368886    8.5019712   0.19902163        0.005    4.0036077  0.011453697    85.924677    678.63268 
   45400    504.08255   0.33551591     8.520911   0.19902163        0.005    3.9241626  0.010046218    85.657354    677.30399 
   45500    505.11441   0.33570843    8.5393307   0.19902163        0.005    3.8059388  0.010460668    85.890735    675.97222 
   45600    506.16704   0.33626345    8.5577924   0.19902163        0.005    4.1431552  0.010555379     85.76858    674.64316 
   45700    507.20469   0.33470966     8.575679   0.19902163        0.005    4.1406056 0.0098617502    85.417531    673.32051 
   45800    508.26594   0.33704781    8.5936632   0.19902163        0.005    4.2139631  0.011139914    86.586899    671.97981 
   45900    509.34938   0.33680761     8.612197   0.19902163        0.005    3.8753728  0.010302472    85.097546    670.66375 
   46000    510.32306   0.33509736    8.6290446   0.19902163        0.005    3.9650826 0.0094599651    85.668149     669.3391 
   46100    511.27271   0.33697935    8.6456663   0.19902163        0.005    4.0006557 0.0092260274    85.034884    668.02531 
   46200    512.26446   0.33638111     8.663582   0.19902163        0.005    4.7239666  0.010192641    86.568545    666.68785 
   46300    513.34903   0.33897927    8.6833617   0.19902163        0.005     3.910801  0.010169025    85.995392    665.36011 
   46400    514.31582   0.33679678    8.7008044   0.19902163        0.005    4.5963273 0.0093812529    86.411312    664.02661 
   46500    515.24816   0.33701688    8.7177312   0.19902163        0.005    4.7496793 0.0092853119    85.623903    662.70612 
   46600    516.23205   0.33695039    8.7353261   0.19902163        0.005    4.4058201  0.010066511    85.364734    661.39034 
   46700    517.25295   0.33606555     8.753508   0.19902163        0.005    4.6759082  0.010218617     86.09601    660.06383 
   46800    518.29416   0.33705151    8.7720219   0.19902163        0.005    4.1909602   0.01063788    86.618119    658.73006 
   46900    519.30815   0.33599915    8.7897158   0.19902163        0.005    4.5296043 0.0097002261    85.022732    657.42158 
   47000    520.36803    0.3367225      8.80779   0.19902163        0.005    4.2842861  0.010029312     85.69773    656.10322 
   47100    521.40401   0.33649101    8.8265202   0.19902163        0.005     4.425909  0.010356387    84.775648    654.79976 
   47200    522.51239    0.3358428    8.8468148   0.19902163        0.005     4.099073   0.01116342    86.799452    653.46605 
   47300    523.56155    0.3352591     8.867091   0.19902163        0.005    3.9743691  0.010176089    85.423498     652.1538 
   47400    524.57318   0.33694235    8.8858586   0.19902163        0.005    3.8854233  0.010036892    86.178231    650.83076 
   47500    525.57414   0.33665541    8.9036047   0.19902163        0.005    3.9847185  0.010009416    85.513784    649.51837 
   47600    526.62417    0.3362325    8.9232569   0.19902163        0.005    4.5880033 0.0094912239    86.588186    648.19061 
   47700    527.65605   0.33601827    8.9424936   0.19902163        0.005    3.6956891  0.011068086     85.37151    646.88162 
   47800    528.72421   0.33630409    8.9628206   0.19902163        0.005    4.5174876 0.0096969192    85.866909    645.56582 
   47900    529.71797   0.33519956    8.9816192   0.19902163        0.005    4.2279748 0.0098987845    86.551985    644.24063 
   48000    530.67207   0.33560592    8.9985631   0.19902163        0.005    3.9437804  0.010630703    83.442367    642.96279 
   48100    531.66353   0.33665422    9.0170901   0.19902163        0.005    4.0510736  0.010491845    85.324584    641.65676 
   48200    532.69362   0.33583256    9.0351158   0.19902163        0.005    4.0167872  0.011107987    85.630458    640.34679 
   48300    533.74731   0.33562804    9.0544039   0.19902163        0.005    4.4669092  0.010361052    84.738207    639.05056 
   48400     534.8022    0.3363451    9.0727934   0.19902163        0.005    4.1416164 0.0099998139    85.804146    637.73919 
   48500    535.84492   0.33586779    9.0909037   0.19902163        0.005    3.8178008  0.010646343    85.761671    636.42903 
   48600    536.92672   0.33648388    9.1102277   0.19902163        0.005    3.9634916  0.010754133    85.582741    635.12204 
   48700    537.97019   0.33623983    9.1292006   0.19902163        0.005    4.1230298   0.01025873    84.974037    633.82444 
   48800    538.98652   0.33691082    9.1467696   0.19902163        0.005    4.7051272  0.010040585     84.36312    632.53627 
   48900    540.02168   0.33481082    9.1653736   0.19902163        0.005    4.2060313  0.010916325    84.150937    631.25165 
   49000    541.07749   0.33639644    9.1844296   0.19902163        0.005    4.3822082  0.010435507    83.630355    629.97512 
   49100    542.09971   0.33540658    9.2020901   0.19902163        0.005    4.4618585 0.0099608135    82.622778    628.71404 
   49200     543.1313   0.33672349    9.2194786   0.19902163        0.005    4.5831904 0.0095806361     85.93605    627.40498 
   49300    544.18007   0.33680815    9.2384119   0.19902163        0.005    3.9516678   0.01129738     87.17993    626.07943 
   49400    545.26145   0.33482421     9.257614   0.19902163        0.005    4.1481119  0.010915574    85.939149    624.77158 
   49500    546.29318   0.33643947    9.2765084   0.19902163        0.005    4.2274792  0.010778842    86.131989    623.46164 
   49600    547.36243   0.33740837    9.2955692   0.19902163        0.005    4.0432915  0.010420655    85.253668    622.16446 
   49700    548.43225   0.33582753    9.3157303   0.19902163        0.005    4.5643128  0.010726734    86.699586    620.84799 
   49800    549.44218   0.33652209    9.3339382   0.19902163        0.005    4.4321422  0.010512276    86.694102    619.53224 
   49900    550.49128   0.33711384    9.3523435   0.19902163        0.005    4.0378275 0.0093780796    84.607528     618.2457 
   50000    551.57341   0.33632193     9.371619   0.19902163        0.005    3.8884816  0.011420452    84.472658    616.96147 
   50100    552.63043   0.33517208    9.3899219   0.19902163        0.005     4.534946  0.010642455    86.135827    615.65487 
   50200    553.69369   0.33386046    9.4081428   0.19902163        0.005    4.2588664  0.010808801    85.982523    614.35091 
   50300    554.73858   0.33532325     9.425762   0.19902163        0.005    4.2036806  0.009257338    84.219184    613.07156 
   50400    555.68828   0.33797355    9.4424111   0.19902163        0.005    3.8473386 0.0094237663    85.560098    611.77427 
   50500    556.71387   0.33694291    9.4599627   0.19902163        0.005    4.1598917  0.010530709    84.707728    610.48902 
   50600    557.77351   0.33718724    9.4786677   0.19902163        0.005    4.4387165  0.010239505    85.818858    609.18926 
   50700    558.83553   0.33570856    9.4976077   0.19902163        0.005    4.4048425  0.010631177    85.979862     607.8879 
   50800    559.92707   0.33701963    9.5168683   0.19902163        0.005    3.9530186  0.011188832    84.938244    606.60091 
   50900     560.9786   0.33691421    9.5350111   0.19902163        0.005    4.3176541  0.010257427    85.244953    605.31025 
   51000    561.97402   0.33575965    9.5526735   0.19902163        0.005    4.1283059  0.010544895    84.843265     604.0254 
   51100    563.02015   0.33583366    9.5705438   0.19902163        0.005    3.7496572  0.010481217    83.889654    602.75378 
   51200     564.0878   0.33550417     9.589432   0.19902163        0.005    4.1456924 0.0094606068    85.111896    601.46616 
   51300    565.10478   0.33668381    9.6071066   0.19902163        0.005     3.822446 0.0098207065    85.690464    600.17145 
   51400    566.10046   0.33630506     9.623952   0.19902163        0.005    4.2783653  0.010357866    85.700812     598.8771 
   51500     567.1029   0.33634705    9.6413845   0.19902163        0.005    5.1111636 0.0093821751    86.546895     597.5725 
   51600    568.13024   0.33662668    9.6590391   0.19902163        0.005    3.9246915   0.01102702    87.019856    596.26259 
   51700    569.21199     0.336545    9.6770213   0.19902163        0.005    3.8005744  0.011170826    85.220981    594.97596 
   51800    570.26534   0.33622155    9.6946747   0.19902163        0.005    3.8488211  0.010246369    85.245888    593.68946 
   51900    571.32914   0.33636904    9.7130197   0.19902163        0.005    4.0147611  0.011243979    85.192957    592.40406 
   52000    572.42823   0.33632293    9.7320063   0.19902163        0.005    4.2649886  0.010808061    85.695086    591.11275 
   52100    573.50992   0.33502131    9.7495807   0.19902163        0.005    3.9095045  0.010796226    85.583981     589.8233 
   52200    574.54057   0.33670605    9.7656922   0.19902163        0.005    4.2713355 0.0099504661     87.14613    588.51514 
   52300     575.6059   0.33635367     9.783603   0.19902163        0.005    4.0147288  0.010524825    85.113623    587.23259 
   52400    576.62289   0.33541578    9.8006056   0.19902163        0.005    4.2920862  0.011129636    85.961976    585.93991 
   52500    577.68019   0.33604167    9.8185181   0.19902163        0.005    4.2928184  0.010276652    84.900677    584.66088 
   52600    578.73873    0.3357131    9.8358373   0.19902163        0.005    4.0201087  0.010749621    85.542979    583.37427 
   52700     579.8129   0.33521014    9.8545652   0.19902163        0.005    4.0186613  0.010801194    85.946968    582.08317 
   52800    580.85166   0.33549695    9.8725837   0.19902163        0.005    3.9111518  0.010597639    84.960335    580.80464 
[...]
   85300    916.53786   0.33731234    15.596403   0.19902163        0.005    4.8260807 0.0095099991    86.874331    177.19279 
   85400    917.53093   0.33751422    15.611945   0.19902163        0.005    4.8681274  0.010075739    86.579785    175.97879 
   85500    918.55271   0.33681814    15.628361   0.19902163        0.005    4.0640732  0.010240686    86.804805    174.76441 
   85600     919.5967   0.33642774    15.645027   0.19902163        0.005    3.9741212 0.0099717486    87.247009    173.54919 
   85700    920.63889   0.33690215    15.661662   0.19902163        0.005    3.6591129  0.010590786    85.424959    172.33822 
   85800    921.68314   0.33544134    15.678295   0.19902163        0.005    4.6046058  0.010463407     86.48358    171.12497 
   85900    922.68419   0.33588429    15.695026   0.19902163        0.005    3.9650497  0.010228698    85.438828    169.91417 
   86000    923.76844   0.33533647    15.713539   0.19902163        0.005    4.1505976  0.011162391    84.627997    168.70529 
   86100    924.80918   0.33657992    15.731135   0.19902163        0.005    4.0165544  0.010800402    86.457249    167.49244 
   86200    925.84565   0.33632282    15.748176   0.19902163        0.005    4.1341371  0.010581018    85.793247    166.28116 
   86300    926.86224    0.3358243    15.764333   0.19902163        0.005    3.8760897  0.011069052    87.109751    165.06718 
   86400    927.91069   0.33699713    15.782001   0.19902163        0.005    3.7349097  0.010309504    86.892149     163.8538 
   86500    928.95581   0.33586209    15.799645   0.19902163        0.005    3.8817994  0.010945014    86.077634    162.64228 
   86600    930.02864   0.33650604    15.816516   0.19902163        0.005    4.2247566 0.0099636172    86.427516    161.43013 
   86700    931.01843   0.33691851    15.832238   0.19902163        0.005    4.4382508 0.0096816935    85.407738    160.22024 
   86800    932.07233   0.33593738    15.848944   0.19902163        0.005    4.3677136  0.010644913    86.648504    159.00789 
   86900    933.13915   0.33650955    15.865841   0.19902163        0.005    4.4967589 0.0096978524    85.840373     157.7973 
   87000     934.1458   0.33711227    15.882019   0.19902163        0.005    4.4444924   0.01003066    86.391894    156.58571 
   87100    935.20164     0.337126    15.898667   0.19902163        0.005    4.5327371  0.010899968    85.004518    155.37705 
   87200    936.26119   0.33683579    15.915638   0.19902163        0.005    3.9897873  0.010690544     85.82388     154.1668 
   87300    937.31146   0.33655664    15.933142   0.19902163        0.005    4.1466957  0.011076208    86.978676    152.95442 
   87400     938.3392   0.33662313    15.949225   0.19902163        0.005    3.8882495  0.011079253    85.415774     151.7452 
   87500    939.39841   0.33614891    15.967533   0.19902163        0.005     4.393821  0.010013926    84.408059    150.53808 
   87600     940.4769   0.33714513    15.986569   0.19902163        0.005    4.5421604   0.01051698    87.107941     149.3258 
   87700    941.51517   0.33586315    16.004407   0.19902163        0.005    4.5518817 0.0094912607    85.186417    148.11731 
   87800    942.52162   0.33704766    16.020869   0.19902163        0.005    4.2516744 0.0095253332    86.475039    146.90646 
   87900    943.51513   0.33660784    16.038084   0.19902163        0.005    3.8139999   0.01004032    85.657074    145.69725 
   88000    944.53146   0.33627387    16.055685   0.19902163        0.005    4.5126142  0.010705617    85.641211    144.48817 
   88100    945.56743   0.33629861    16.073223   0.19902163        0.005    4.2294025 0.0084647237    84.745621    143.28085 
   88200    946.57626   0.33744977    16.090806   0.19902163        0.005    4.2026317  0.010025245    85.084374    142.07297 
   88300    947.64323   0.33611734    16.109487   0.19902163        0.005    4.4343095  0.010524024    85.351115    140.86467 
   88400    948.68137   0.33600668    16.128076   0.19902163        0.005    4.1199375  0.011094616    86.816699    139.65386 
   88500     949.7245   0.33745327    16.146658   0.19902163        0.005    4.0493499  0.010521023     84.50479    138.44728 
   88600    950.72675   0.33715151    16.164369   0.19902163        0.005    4.3107641 0.0088114362    86.052433    137.23801 
   88700    951.67125   0.33635478    16.181359   0.19902163        0.005    3.7670433  0.010156845    84.974691    136.03072 
   88800    952.72931   0.33664385    16.199596   0.19902163        0.005    3.8736746  0.010252336    86.685394    134.82058 
   88900    953.73144   0.33619673    16.217246   0.19902163        0.005    5.1998412 0.0091141976    86.017137    133.61168 
   89000    954.72528    0.3363652     16.23462   0.19902163        0.005    4.1684476 0.0099677433    85.248868    132.40418 
   89100    955.78031   0.33623181    16.252763   0.19902163        0.005    4.0725784  0.011596813    86.342525    131.19494 
   89200    956.87457   0.33602599    16.271554   0.19902163        0.005     3.878474  0.011380944    85.087688    129.98788 
   89300    957.92722   0.33588078    16.290109   0.19902163        0.005    4.3839604  0.010210432    83.923325    128.78285 
   89400    958.92587   0.33532617    16.307968   0.19902163        0.005    4.0446891  0.010421413    84.414617    127.57703 
   89500    959.97499   0.33626914     16.32563   0.19902163        0.005    3.7264496  0.010472971    85.345991    126.36973 
   89600    960.98833   0.33771074    16.343992   0.19902163        0.005    3.7893239 0.0093430276    85.969235    125.16153 
   89700    961.98312   0.33733913    16.361683   0.19902163        0.005    4.6592063  0.010327007    86.227927    123.95303 
   89800    963.01551   0.33654969     16.37921   0.19902163        0.005    4.6340831  0.010181218    85.547742    122.74568 
   89900    964.02594   0.33603854     16.39625   0.19902163        0.005    4.0403319 0.0098130225     86.20177    121.53743 
   90000    965.07591   0.33647169    16.413141   0.19902163        0.005    4.3334595  0.010959074    85.188597    120.33081 
   90100    966.15436   0.33741776     16.43094   0.19902163        0.005    3.7458876  0.011170835    84.937006    119.12465 
   90200    967.20166   0.33610399     16.44877   0.19902163        0.005    4.6803075 0.0098003975    86.399137    117.91639 
   90300     968.1934   0.33639878    16.466519   0.19902163        0.005    3.7313426  0.010417718     86.21031    116.70851 
   90400    969.23101   0.33655663    16.484759   0.19902163        0.005    4.2473179   0.01033445    85.788386    115.50135 
   90500    970.29811   0.33677705    16.503295   0.19902163        0.005    3.9877119  0.010290382    86.146672    114.29377 
   90600    971.32743   0.33668641    16.521887   0.19902163        0.005    4.2046879  0.010034916    84.395236    113.08879 
   90700    972.33692   0.33781793    16.539404   0.19902163        0.005    4.1640099  0.010260017     86.05185    111.88151 
   90800    973.34543   0.33704884    16.557018   0.19902163        0.005    4.1821585  0.010050272    85.646073    110.67489 
   90900    974.38661   0.33783802    16.575179   0.19902163        0.005    4.3133192   0.01093055    85.448314    109.46863 
   91000    975.41711    0.3372281    16.593344   0.19902163        0.005    3.7764563  0.010382694    85.612333    108.26223 
   91100    976.47499   0.33679784    16.612165   0.19902163        0.005    4.0675393  0.011289704    84.493572    107.05742 
   91200    977.53072   0.33655137    16.630851   0.19902163        0.005    3.7314326  0.010375514    85.726245    105.85102 
   91300    978.56718   0.33628719    16.648546   0.19902163        0.005    4.1261529  0.010476519    85.471978    104.64503 
   91400    979.63419   0.33659978      16.6675   0.19902163        0.005    4.1071333  0.011001766    85.723232     103.4388 
   91500    980.68392   0.33728304    16.685704   0.19902163        0.005    3.8567706 0.0098920576    86.252096      102.232 
   91600     981.7089   0.33711198     16.70409   0.19902163        0.005    4.0316655 0.0098693546     86.92577    101.02447 
   91700     982.7432   0.33723362    16.721944   0.19902163        0.005    3.9266145  0.010928539    85.582793      99.8187 
   91800    983.82558    0.3372328    16.741315   0.19902163        0.005    4.1021178  0.011064132    85.048127    98.613669 
   91900    984.85625   0.33621429    16.759516   0.19902163        0.005     4.159583   0.01105363    86.334225    97.407157 
   92000    985.94343   0.33739156    16.777664   0.19902163        0.005    4.0857505  0.010292375    85.755586     96.20143 
   92100    986.99617   0.33716115    16.795488   0.19902163        0.005    4.8766745 0.0099970787    84.829005    94.996881 
   92200    988.09401   0.33532577    16.815381   0.19902163        0.005    4.2329091  0.011526773    85.890735    93.791156 
   92300    989.16091   0.33699967    16.833747   0.19902163        0.005    3.6130025  0.010391504    86.343023    92.585011 
   92400    990.17455   0.33726536    16.850683   0.19902163        0.005    4.8388305    0.0101701    85.951635    91.379404 
   92500     991.2009    0.3370836    16.868561   0.19902163        0.005    3.9866801  0.011112717    84.948497    90.175002 
   92600    992.28359   0.33713079    16.887345   0.19902163        0.005    3.8872481  0.010275854    85.880395    88.969638 
   92700    993.29002   0.33700156    16.903693   0.19902163        0.005    3.8528183  0.011131475    86.193231     87.76403 
   92800    994.36652    0.3359624    16.921363   0.19902163        0.005    3.7896827  0.010437846    86.171167    86.558542 
   92900    995.38627   0.33523444    16.938265   0.19902163        0.005    3.7161626  0.011623795    85.864396    85.353468 
   93000     996.4712   0.33671371    16.957581   0.19902163        0.005    3.6718558  0.011174049    86.054375    84.148288 
   93100      997.535   0.33637667    16.976457   0.19902163        0.005    4.2899435  0.010802696    86.519116    82.942738 
   93200    998.60909    0.3372569     16.99527   0.19902163        0.005    3.8811331  0.010542106    86.559916    81.737255 
   93300    999.61756   0.33746631    17.013276   0.19902163        0.005    4.4541446  0.010467527    85.675936    80.532735 
   93400    1000.6566   0.33856394    17.031467   0.19902163        0.005    4.0975371  0.010573185    86.428709    79.327577 
   93500    1001.7207   0.33685777    17.049919   0.19902163        0.005     3.887149  0.010967824    84.886673    78.123983 
   93600    1002.8138   0.33707544     17.06894   0.19902163        0.005    3.7810099  0.011199497    87.046007    76.918446 
   93700    1003.8886    0.3356712    17.087077   0.19902163        0.005    4.0305014  0.010265999    86.450656    75.713561 
   93800    1004.9248   0.33753484    17.104201   0.19902163        0.005    4.4155852 0.0099009556    85.462504    74.509663 
   93900    1005.9475   0.33706863    17.121277   0.19902163        0.005    4.1330763   0.01004892    85.420941    73.305875 
   94000    1006.9763   0.33661937    17.139036   0.19902163        0.005    4.2353695  0.010467865    85.305096    72.102258 
   94100    1008.0471   0.33734018    17.156342   0.19902163        0.005    4.0048285  0.010901828    86.179258    70.897962 
   94200    1009.0913   0.33663377    17.173124   0.19902163        0.005    4.7663658  0.010423606    85.954506    69.693946 
   94300    1010.1288   0.33674669    17.189581   0.19902163        0.005    4.7473605  0.010164297    86.647913    68.489454 
   94400    1011.1697   0.33722553    17.205786   0.19902163        0.005    4.6526866 0.0097695736    85.091244    67.286321 
   94500    1012.1921   0.33696877    17.222911   0.19902163        0.005    4.2308078 0.0094671074    85.543276    66.082885 
   94600    1013.2027   0.33673878    17.239297   0.19902163        0.005    3.9354177 0.0086914905    86.336855    64.878909 
   94700    1014.1738   0.33702787    17.255418   0.19902163        0.005    3.9386827 0.0098736717    86.278887    63.675073 
   94800    1015.2202   0.33757299    17.273039   0.19902163        0.005    4.5660607 0.0095925348      86.4423    62.471212 
   94900    1016.2066   0.33573497    17.289853   0.19902163        0.005    3.6287911  0.010052326    87.058654    61.267009 
   95000    1017.2618   0.33708162     17.30825   0.19902163        0.005    3.9621474  0.010442576     84.88633    60.064471 
   95100    1018.3415   0.33572379     17.32629   0.19902163        0.005    4.1830619  0.011019112     87.05925    58.860469 
   95200     1019.388   0.33701766    17.342802   0.19902163        0.005    4.1427375  0.010528537    85.909771    57.657358 
   95300    1020.3978   0.33598345    17.359505   0.19902163        0.005     3.903159  0.010636858    86.090213    56.454209 
   95400    1021.4315   0.33697207    17.375815   0.19902163        0.005    4.2493528  0.010530812    86.300936     55.25101 
   95500    1022.4341   0.33677329    17.391582   0.19902163        0.005    4.9233191 0.0093465086    86.138145    54.048008 
   95600    1023.4019   0.33613154    17.407401   0.19902163        0.005    4.6103545  0.010669572    86.737721    52.844724 
   95700    1024.4569   0.33605058    17.423988   0.19902163        0.005    4.5027432  0.009367556    86.012092    51.641983 
   95800    1025.4257   0.33601456     17.43976   0.19902163        0.005    3.8423151 0.0097967552     85.83361    50.439431 
   95900    1026.4604   0.33695511    17.457775   0.19902163        0.005    3.7122104  0.010656091    86.058665    49.236827 
   96000    1027.5193    0.3357983    17.475357   0.19902163        0.005    4.2708016  0.010503281    86.224063    48.034215 
   96100    1028.5651   0.33646352    17.492081   0.19902163        0.005    4.7870669 0.0096049008    85.821141    46.831914 
   96200    1029.6386   0.33719304    17.510632   0.19902163        0.005    3.8841432  0.011328526    86.301308    45.629433 
   96300    1030.7201   0.33627362    17.530629   0.19902163        0.005    3.9393831  0.010465507    86.017296     44.42719 
   96400    1031.7314   0.33704648    17.547327   0.19902163        0.005    4.2505079  0.010404681    86.597625    43.224738 
   96500    1032.7459   0.33622355    17.563829   0.19902163        0.005    3.7740984  0.010318078    86.719662    42.022327 
   96600    1033.7893   0.33706003    17.581318   0.19902163        0.005    4.4943198 0.0090896194    86.012251    40.820351 
   96700    1034.7835   0.33657319    17.598254   0.19902163        0.005    4.1623499 0.0090343364    86.410191    39.618274 
   96800    1035.7275   0.33605154    17.614403   0.19902163        0.005     4.470919 0.0091787918    86.258198    38.416357 
   96900    1036.7197   0.33697408    17.631456   0.19902163        0.005    4.8935508 0.0099618674    85.769633    37.214739 
   97000    1037.7195   0.33689435    17.648685   0.19902163        0.005    4.3571664 0.0097297875    85.863429    36.013155 
   97100    1038.7584   0.33622329     17.66576   0.19902163        0.005    4.9647627 0.0091450462     85.86654    34.811646 
   97200    1039.6884   0.33618394     17.68124   0.19902163        0.005    4.0095894  0.010892962    85.472135    33.610368 
   97300    1040.7395   0.33634772     17.69955   0.19902163        0.005     3.722706  0.010426152    86.549592     32.40875 
   97400    1041.7817   0.33657167    17.717416   0.19902163        0.005    3.5985797  0.010453568     86.74931    31.207156 
   97500    1042.8029    0.3368373    17.735141   0.19902163        0.005    4.1691897  0.010125949    85.489365    30.006097 
   97600    1043.8515   0.33689713      17.7527   0.19902163        0.005    3.8522604  0.010314655    84.852053    28.805319 
   97700     1044.925   0.33587693    17.771317   0.19902163        0.005    4.4112305  0.010334864    85.551319     27.60436 
   97800    1046.0193    0.3368339    17.790631   0.19902163        0.005    4.3498705  0.010835912    85.965006     26.40334 
   97900    1047.0875   0.33747924     17.80899   0.19902163        0.005    4.0036272  0.010923079    85.794493    25.202446 
   98000    1048.1237   0.33729324    17.827174   0.19902163        0.005    3.8890954  0.010162768    85.501511    24.001707 
   98100    1049.0961   0.33754947    17.844445   0.19902163        0.005    4.2379985  0.009732146    86.500542    22.800769 
   98200    1050.0771     0.338333    17.861731   0.19902163        0.005     4.001668 0.0086882336    87.090578    21.599778 
   98300    1051.0811      0.33663    17.879167   0.19902163        0.005    3.9178514  0.010272857    85.433503    20.399281 
   98400    1052.1143   0.33606766    17.896237   0.19902163        0.005    3.8092024  0.010933742    85.863657    19.198749 
   98500    1053.1636   0.33718722    17.913989   0.19902163        0.005    3.9381327  0.010185685    86.913143    17.998076 
   98600      1054.22   0.33689748    17.931909   0.19902163        0.005    3.7094966  0.010128671     85.14602    16.797843 
   98700    1055.2894   0.33622482    17.949445   0.19902163        0.005    4.2131347  0.010138141    86.302356    15.597455 
   98800    1056.2961   0.33593554    17.965383   0.19902163        0.005     4.466304  0.009938248    84.196056    14.397504 
   98900    1057.2793   0.33615747    17.981867   0.19902163        0.005    4.3545721  0.009956985    83.304382    13.197719 
   99000    1058.2894   0.33604535    17.997785   0.19902163        0.005    3.7449033 0.0098367403    83.464999    11.997909 
   99100    1059.3652   0.33632245    18.015334   0.19902163        0.005    3.8777289  0.011270144    82.668277    10.798208 
   99200    1060.4578   0.33654287    18.031802   0.19902163        0.005     4.193944  0.010430693    86.310383    9.5980749 
   99300    1061.5358   0.33618794    18.049794   0.19902163        0.005    4.2857239  0.010465116    86.730493    8.3979859 
   99400    1062.6037   0.33735558    18.065928   0.19902163        0.005    3.9537434 0.0092141172    85.595403    7.1980839 
   99500    1063.6769   0.33657662    18.083342   0.19902163        0.005    3.9021762  0.010374633    86.205349     5.998204 
   99600    1064.7074   0.33470404    18.100575   0.19902163        0.005    3.8397918  0.011327417    85.914856    4.7984198 
   99700    1065.7972   0.33694067    18.118208   0.19902163        0.005    3.9249552  0.011395915    86.128416    3.5986989 
   99800     1066.881   0.33679216    18.136044   0.19902163        0.005    4.0392548  0.011402338    86.419591    2.3990476 
   99900    1067.9604   0.33544981    18.153391   0.19902163        0.005    4.2091665   0.01113256    86.390631    1.1994818 
  100000     1069.018   0.33630957    18.171085   0.19902163        0.005    3.9209335  0.010288396    84.162689            0 
Loop time of 1199.47 on 4 procs for 100000 steps with 182828 atoms

Performance: 74109.153 tau/day, 83.370 timesteps/s
222.4% CPU use with 1 MPI tasks x 4 OpenMP threads

MPI task timing breakdown:
Section |  min time  |  avg time  |  max time  |%varavg| %total
---------------------------------------------------------------
Pair    | 382.65     | 382.65     | 382.65     |   0.0 | 31.90
Neigh   | 17.971     | 17.971     | 17.971     |   0.0 |  1.50
Comm    | 130.88     | 130.88     | 130.88     |   0.0 | 10.91
Output  | 3.3981     | 3.3981     | 3.3981     |   0.0 |  0.28
Modify  | 591.5      | 591.5      | 591.5      |   0.0 | 49.31
Other   |            | 73.08      |            |       |  6.09

Nlocal:    182828 ave 182828 max 182828 min
Histogram: 1 0 0 0 0 0 0 0 0 0
Nghost:    67402 ave 67402 max 67402 min
Histogram: 1 0 0 0 0 0 0 0 0 0
Neighs:    0 ave 0 max 0 min
Histogram: 1 0 0 0 0 0 0 0 0 0

Total # of neighbors = 0
Ave neighs/atom = 0
Neighbor list builds = 28528
Dangerous builds = 0

Please see the log.cite file for references relevant to this simulation

Total wall time: 0:20:54
