#package gpu 1
#suffix gpu
#variable rho equal 0.05

units lj
atom_style atomic

lattice fcc 0.975
Lattice spacing in x,y,z = 1.60085 1.60085 1.60085
region box block 0 60 0 30 0 30
create_box 2 box
Created orthogonal box = (0 0 0) to (96.0513 48.0256 48.0256)
  1 by 1 by 1 MPI processor grid
create_atoms 1 box
Created 216000 atoms
  Time spent = 0.0404279 secs
mass 1 4.0
mass 2 0.5


pair_style lj/cut 2.5
pair_coeff 1 1 1.0 1.0 2.5
pair_coeff 2 2 0.5 0.88 2.5
pair_coeff 1 2 0.2 1.0 2.5
#pair_coeff 1 2 1.5 0.8 2.5
pair_modify mix geometric
neigh_modify every 1 delay 0 check yes

variable R equal 12
region cylinder1 cylinder x $(0.5*ly) $(0.5*lz) $R EDGE EDGE units box
region cylinder1 cylinder x 24.012813670346833561 $(0.5*lz) $R EDGE EDGE units box
region cylinder1 cylinder x 24.012813670346833561 24.012813670346833561 $R EDGE EDGE units box
region cylinder1 cylinder x 24.012813670346833561 24.012813670346833561 12 EDGE EDGE units box

group cylinder1 region cylinder1
41820 atoms in group cylinder1
variable V equal PI*v_R*v_R*lx
# variable rho equal 0.1
variable natoms equal $V*${rho}
variable natoms equal 43452.5639148185*${rho}
variable natoms equal 43452.5639148185*0.10
variable natoms_in_cylinder equal count(cylinder1)
variable delete_fraction equal (${natoms_in_cylinder}-${natoms})/${natoms_in_cylinder}
variable delete_fraction equal (41820-${natoms})/${natoms_in_cylinder}
variable delete_fraction equal (41820-4345.25639148185)/${natoms_in_cylinder}
variable delete_fraction equal (41820-4345.25639148185)/41820
set group cylinder1 type 2
  41820 settings made for type
delete_atoms porosity cylinder1 ${delete_fraction} 12345
delete_atoms porosity cylinder1 0.89609621254228 12345
Deleted 37463 atoms, new total = 178537
#delete_atoms region cylinder1

region cylinder2 cylinder x $(0.5*ly) $(0.5*lz) $(v_R+6) EDGE EDGE units box
region cylinder2 cylinder x 24.012813670346833561 $(0.5*lz) $(v_R+6) EDGE EDGE units box
region cylinder2 cylinder x 24.012813670346833561 24.012813670346833561 $(v_R+6) EDGE EDGE units box
region cylinder2 cylinder x 24.012813670346833561 24.012813670346833561 18 EDGE EDGE units box
region cylinder3 cylinder x $(0.5*ly) $(0.5*lz) $(v_R+9) EDGE EDGE units box
region cylinder3 cylinder x 24.012813670346833561 $(0.5*lz) $(v_R+9) EDGE EDGE units box
region cylinder3 cylinder x 24.012813670346833561 24.012813670346833561 $(v_R+9) EDGE EDGE units box
region cylinder3 cylinder x 24.012813670346833561 24.012813670346833561 21 EDGE EDGE units box
group cylinder2 region cylinder2
58357 atoms in group cylinder2
group cylinder3 region cylinder3
92197 atoms in group cylinder3

group nve region cylinder3
92197 atoms in group nve
group langevin subtract cylinder3 cylinder2
33840 atoms in group langevin
group frozen subtract all cylinder3
86340 atoms in group frozen

region force cylinder x $(0.5*ly) $(0.5*lz) $(v_R-1) EDGE EDGE units box
region force cylinder x 24.012813670346833561 $(0.5*lz) $(v_R-1) EDGE EDGE units box
region force cylinder x 24.012813670346833561 24.012813670346833561 $(v_R-1) EDGE EDGE units box
region force cylinder x 24.012813670346833561 24.012813670346833561 11 EDGE EDGE units box
group gas type 2
4357 atoms in group gas

fix nve nve nve
fix langevin langevin langevin 0.50 0.50 1.0 12345 zero yes

variable gascount equal count(gas)

variable dP equal 0.001
variable force equal v_dP/v_rho

velocity all create 0.1 87287
velocity frozen set 0 0 0

compute chunk all chunk/atom bin/cylinder x lower $(lx) $(0.5*ly) $(0.5*lz) 0 $(v_R+3) 80 units box
compute chunk all chunk/atom bin/cylinder x lower 96.051254681387334244 $(0.5*ly) $(0.5*lz) 0 $(v_R+3) 80 units box
compute chunk all chunk/atom bin/cylinder x lower 96.051254681387334244 24.012813670346833561 $(0.5*lz) 0 $(v_R+3) 80 units box
compute chunk all chunk/atom bin/cylinder x lower 96.051254681387334244 24.012813670346833561 24.012813670346833561 0 $(v_R+3) 80 units box
compute chunk all chunk/atom bin/cylinder x lower 96.051254681387334244 24.012813670346833561 24.012813670346833561 0 15 80 units box

compute displacement all displace/atom
compute mean_displacement nve reduce ave c_displacement[4]

compute vmax all reduce max vx
variable volume equal count(gas)/v_V

thermo_style custom step time temp c_mean_displacement v_volume v_force c_vmax dt spcpu cpuremain
thermo 100

compute keAtom all ke/atom
dump dump all custom 1000 trajectory.bin id type x y z c_keAtom

fix flow gas addforce v_force 0.0 0.0
run 5000
No /omp style for force computation currently active
Per MPI rank memory allocation (min/avg/max) = 85.96 | 85.96 | 85.96 Mbytes
Step Time Temp c_mean_displacement v_volume v_force c_vmax Dt S/CPU CPULeft 
       0            0  0.051616467            0   0.10027026         0.01   0.77516481        0.005            0            0 
     100          0.5  0.066454032  0.066704651   0.10027026         0.01    1.7432632        0.005    137.80122    35.558512 
     200            1  0.096602035   0.11248916   0.10027026         0.01    1.8715364        0.005    144.98448     33.96991 
     300          1.5   0.11201175   0.16159806   0.10027026         0.01    2.2110566        0.005    142.72156    33.151872 
     400            2   0.12454802   0.20401703   0.10027026         0.01    2.3094533        0.005    144.95718    32.268262 
     500          2.5   0.13199711   0.24207754   0.10027026         0.01    2.4389302        0.005    146.00157    31.417748 
     600            3   0.13693828   0.26741927   0.10027026         0.01    2.6455552        0.005      145.408    30.642927 
     700          3.5   0.14301044     0.275852   0.10027026         0.01    2.6176636        0.005    145.55641    29.888685 
     800            4   0.15092938    0.2711998   0.10027026         0.01    2.4940064        0.005    146.28393     29.13331 
     900          4.5   0.15754229   0.25776095   0.10027026         0.01    2.5661695        0.005     143.0429    28.464446 
    1000            5   0.16194101   0.24016733   0.10027026         0.01    2.5071769        0.005     140.1982    27.846276 
    1100          5.5   0.16592117   0.22610207   0.10027026         0.01    2.5802355        0.005     142.4061    27.171601 
    1200            6   0.16818669   0.22081562   0.10027026         0.01    3.1085771        0.005    142.83962    26.485595 
    1300          6.5   0.17080519   0.22419724   0.10027026         0.01    2.9845913        0.005    144.67507    25.772139 
    1400            7   0.17444399   0.23182962   0.10027026         0.01    3.4099826        0.005    143.15163    25.080778 
    1500          7.5   0.17819316   0.24047249   0.10027026         0.01    3.1860879        0.005    143.59501    24.383422 
    1600            8   0.18228103   0.24792305   0.10027026         0.01     3.361314        0.005    143.99284    23.682101 
    1700          8.5   0.18677718    0.2563403   0.10027026         0.01    3.3287297        0.005     142.4611    22.996077 
    1800            9   0.19209474   0.26543916   0.10027026         0.01    3.1375614        0.005    143.29624    22.301011 
    1900          9.5   0.19557957    0.2771918   0.10027026         0.01    3.1370691        0.005    142.42216    21.612639 
    2000           10   0.20027239   0.29111598   0.10027026         0.01    3.1362704        0.005     137.6186    20.959656 
    2100         10.5   0.20298598   0.30671797   0.10027026         0.01     3.022839        0.005    114.97251    20.497305 
    2200           11   0.20445336   0.32116111   0.10027026         0.01     3.282914        0.005    134.78815    19.835176 
    2300         11.5   0.20698086   0.33286265   0.10027026         0.01    2.9016863        0.005    135.00343    19.164721 
    2400           12   0.20918378   0.34011051   0.10027026         0.01    3.2419796        0.005    134.11979    18.493697 
    2500         12.5   0.21059321   0.34381404   0.10027026         0.01    3.0722076        0.005       135.29    17.810258 
    2600           13   0.21148551   0.34442175   0.10027026         0.01    3.4264002        0.005      133.206    17.133208 
    2700         13.5   0.21294039   0.34311035   0.10027026         0.01    3.9606957        0.005    131.05111    16.461216 
    2800           14   0.21434822    0.3415853   0.10027026         0.01    2.8019786        0.005    131.78616    15.779375 
    2900         14.5   0.21458467   0.34069624   0.10027026         0.01    2.8565359        0.005     132.3739    15.089787 
    3000           15   0.21546258   0.34234482   0.10027026         0.01    3.1825614        0.005    131.37239    14.399648 
    3100         15.5   0.21669982   0.34690209   0.10027026         0.01    2.7494564        0.005    132.19312    13.702028 
    3200           16   0.21837217   0.35347832   0.10027026         0.01    3.4563586        0.005     132.2639    13.000503 
    3300         16.5   0.22025176   0.36100721   0.10027026         0.01     3.723731        0.005    131.26549    12.298635 
    3400           17   0.22217746   0.36819909   0.10027026         0.01    3.0248673        0.005    131.90714    11.591496 
    3500         17.5   0.22375516   0.37540384   0.10027026         0.01    3.5091706        0.005    134.27363    10.875719 
    3600           18   0.22651196   0.38307667   0.10027026         0.01    3.4122595        0.005    132.09828    10.163101 
    3700         18.5   0.22884041   0.38985892   0.10027026         0.01    3.1306598        0.005    132.38509    9.4475079 
    3800           19   0.22945286    0.3973038   0.10027026         0.01    3.2288593        0.005    131.78463    8.7309079 
    3900         19.5    0.2307037   0.40504905   0.10027026         0.01    3.4543621        0.005    131.99435    8.0118029 
    4000           20   0.23167827   0.41295668   0.10027026         0.01    3.1111892        0.005    128.40349    7.2960695 
    4100         20.5   0.23343585   0.42073651   0.10027026         0.01    3.5474176        0.005    132.10094     6.572475 
    4200           21   0.23271157   0.42815984   0.10027026         0.01    2.9807442        0.005    133.57733    5.8456962 
    4300         21.5   0.23386605   0.43442444   0.10027026         0.01    3.3749735        0.005    133.15137    5.1182909 
    4400           22   0.23385607   0.44008498   0.10027026         0.01    3.2066522        0.005    131.72399    4.3909218 
    4500         22.5   0.23400103    0.4441279   0.10027026         0.01    2.8619172        0.005    132.63024    3.6615632 
    4600           23   0.23543233   0.44729572   0.10027026         0.01    3.0748444        0.005      133.047     2.930929 
    4700         23.5   0.23573323   0.45068375   0.10027026         0.01    2.8846351        0.005    132.54499    2.1995837 
    4800           24   0.23640354   0.45455593   0.10027026         0.01    3.6957741        0.005    133.00772    1.4671658 
    4900         24.5   0.23728107   0.45984104   0.10027026         0.01    3.1526473        0.005    131.43575   0.73413892 
    5000           25   0.23798716   0.46633651   0.10027026         0.01    3.4648747        0.005    131.08101            0 
Loop time of 36.7357 on 4 procs for 5000 steps with 178537 atoms

Performance: 58798.370 tau/day, 136.107 timesteps/s
240.4% CPU use with 1 MPI tasks x 4 OpenMP threads

MPI task timing breakdown:
Section |  min time  |  avg time  |  max time  |%varavg| %total
---------------------------------------------------------------
Pair    | 15.499     | 15.499     | 15.499     |   0.0 | 42.19
Neigh   | 0.25034    | 0.25034    | 0.25034    |   0.0 |  0.68
Comm    | 3.892      | 3.892      | 3.892      |   0.0 | 10.59
Output  | 0.171      | 0.171      | 0.171      |   0.0 |  0.47
Modify  | 13.668     | 13.668     | 13.668     |   0.0 | 37.21
Other   |            | 3.255      |            |       |  8.86

Nlocal:    178537 ave 178537 max 178537 min
Histogram: 1 0 0 0 0 0 0 0 0 0
Nghost:    66849 ave 66849 max 66849 min
Histogram: 1 0 0 0 0 0 0 0 0 0
Neighs:    0 ave 0 max 0 min
Histogram: 1 0 0 0 0 0 0 0 0 0

Total # of neighbors = 0
Ave neighs/atom = 0
Neighbor list builds = 559
Dangerous builds = 0

reset_timestep 0
fix vx all ave/chunk 10 10000 100000 chunk vx ave running file velocity.txt

fix dt all dt/reset 10 NULL NULL 0.05 units box

run 100000
No /omp style for force computation currently active
Per MPI rank memory allocation (min/avg/max) = 95.34 | 95.34 | 95.34 Mbytes
Step Time Temp c_mean_displacement v_volume v_force c_vmax Dt S/CPU CPULeft 
       0           25   0.23798716   0.46633651   0.10027026         0.01    3.4648747  0.012861072            0            0 
     100    26.288406     0.239286   0.48490764   0.10027026         0.01    3.7118864  0.013367392    110.10741    907.29683 
     200    27.628455   0.24026462   0.50246693   0.10027026         0.01    3.2124106  0.013474627    110.05217    906.61574 
     300    28.891959   0.24326873   0.52136118   0.10027026         0.01    3.1664354  0.012310274    109.38502    907.62466 
     400    30.180829   0.24424113   0.54086405   0.10027026         0.01    3.3946618  0.013247608    108.95974    908.56044 
     500    31.472372    0.2450899   0.55783062   0.10027026         0.01    3.0871446  0.012638398    105.87255    914.08043 
     600      32.7015   0.24523867   0.57047015   0.10027026         0.01    4.0398919  0.011930459    98.642482     928.9147 
     700    33.900356   0.24488905   0.58440314   0.10027026         0.01    3.5500246    0.0129052     99.84812    937.48451 
     800    35.109285   0.24551216     0.601433   0.10027026         0.01    3.2204267  0.012273102    110.61325    931.57519 
     900    36.323674   0.24611364   0.61850097   0.10027026         0.01    3.9168522  0.012237303     108.7006    928.52968 
    1000     37.52306   0.24840631   0.63440453   0.10027026         0.01     4.097437  0.011554346    105.80655    928.40043 
    1100    38.721314   0.24905782   0.65298382   0.10027026         0.01    3.8691137  0.012376575    107.99744      926.399 
    1200    39.934202   0.25002126   0.66983482   0.10027026         0.01    3.6414067  0.011830525    108.62445    924.13675 
    1300    41.135383   0.24918392    0.6864294   0.10027026         0.01    4.0764738  0.011953609    108.73867     922.0075 
    1400     42.31166   0.24981845   0.70258601   0.10027026         0.01    4.0470986  0.011695168    109.51008     919.5948 
    1500    43.482638   0.25066425    0.7192652   0.10027026         0.01    3.5271046  0.011837253    109.36072    917.46394 
    1600    44.619617   0.25057623   0.73567952   0.10027026         0.01     3.606133  0.011796836    108.36292    916.00297 
    1700    45.801169   0.25246772   0.75207327   0.10027026         0.01    3.7482532  0.010954389    108.41365    914.58031 
    1800    46.938343   0.25142135   0.76959748   0.10027026         0.01    3.2509715  0.011656989    110.26865    912.36666 
    1900    48.087476   0.25268246   0.78651714   0.10027026         0.01     3.646508  0.011388016    107.02286    911.71074 
    2000    49.283574    0.2523862   0.80360719   0.10027026         0.01    3.6089808  0.011463899    106.72448    911.15491 
    2100    50.372584   0.25303683   0.81832285   0.10027026         0.01    4.4814547  0.011093881     107.8123    910.12204 
    2200    51.525493   0.25212403   0.83444334   0.10027026         0.01    3.6743458  0.010830666    109.23219    908.56276 
    2300    52.643623   0.25219115   0.85183878   0.10027026         0.01     3.581608  0.012758446     108.0579    907.48208 
    2400    53.857276   0.25233196   0.87040397   0.10027026         0.01    3.4847882  0.011587405    109.50096    905.91837 
    2500    55.029158   0.25394052   0.88735328   0.10027026         0.01    3.5639237  0.011950025     108.4702    904.74513 
    2600     56.20865   0.25409568   0.90455004   0.10027026         0.01    3.9041248  0.011666101    107.90561    903.77194 
    2700    57.322153   0.25418475   0.92205543   0.10027026         0.01    3.5017848  0.010174954    108.44151    902.63715 
    2800      58.4747   0.25431889   0.93862156   0.10027026         0.01    4.0378798  0.011429954    108.57611    901.47786 
    2900     59.62193   0.25398918    0.9557377   0.10027026         0.01    4.1202615  0.011935167    112.12081    899.36006 
    3000    60.835032   0.25422686   0.97480725   0.10027026         0.01    3.6652675   0.01102233    110.22211    897.82075 
    3100    61.997081    0.2535266   0.99365181   0.10027026         0.01    3.6284943  0.012296431    110.72468     896.1935 
    3200    63.150917   0.25594095    1.0104217   0.10027026         0.01    3.7222234  0.011763034    109.92659    894.80983 
    3300    64.334287   0.25526291    1.0292284   0.10027026         0.01    3.7786286  0.011608228    111.51033    893.07631 
    3400      65.4611    0.2562878    1.0465993   0.10027026         0.01    4.1177733  0.010846186     110.1654    891.70309 
    3500    66.565264   0.25543856    1.0641423   0.10027026         0.01    3.4607831  0.011235793    110.59732    890.25871 
    3600    67.663183   0.25561262    1.0805476   0.10027026         0.01    3.8783604  0.011144297    111.83105    888.57726 
    3700    68.791476   0.25503699    1.0980227   0.10027026         0.01      3.96183  0.011793845    110.31209    887.25878 
    3800    69.930706   0.25601714     1.115343   0.10027026         0.01    3.8548008  0.011404491    108.99372    886.23959 
    3900    71.070525    0.2561417    1.1321992   0.10027026         0.01    3.6917919  0.011606422    108.84105    885.25733 
    4000    72.243819   0.25606319    1.1496469   0.10027026         0.01    4.2613629  0.011159084    110.34094    883.97851 
    4100     73.40856   0.25675387    1.1670567   0.10027026         0.01    4.1824755  0.011327383    108.91857    882.99469 
    4200    74.563234   0.25618804    1.1860564   0.10027026         0.01    3.5435383  0.011477315    110.56199    881.70271 
    4300    75.692893   0.25600564    1.2018699   0.10027026         0.01    3.8340655  0.011301533    109.88069    880.55357 
    4400    76.844044   0.25760781    1.2186185   0.10027026         0.01    3.8626153  0.011910757    110.40989    879.32052 
    4500    77.961354   0.25626793    1.2356922   0.10027026         0.01     4.526691  0.011000062    111.72298    877.87611 
    4600    79.065323   0.25733066    1.2526038   0.10027026         0.01    3.7397148  0.011560371    110.11397    876.72683 
    4700    80.183778   0.25711878    1.2709246   0.10027026         0.01    4.0185828  0.010649762    110.96709    875.44624 
    4800    81.279843   0.25713067    1.2878008   0.10027026         0.01    3.7762269    0.0115449    112.34921    873.96159 
    4900    82.414397   0.25686148    1.3061848   0.10027026         0.01    3.9941425  0.011495917    111.54376    872.62594 
    5000    83.500418   0.25675305    1.3245418   0.10027026         0.01    3.7726115  0.010485068    109.93204    871.55759 
    5100    84.575012    0.2563585    1.3414496   0.10027026         0.01    4.0858652  0.011338475    108.83111    870.66669 
    5200    85.678982   0.25769919    1.3579042   0.10027026         0.01    4.6714084  0.010073646    109.87237    869.61597 
    5300    86.676902   0.25685498    1.3730031   0.10027026         0.01    4.6345001  0.010176522    109.43948    868.63488 
    5400     87.69538   0.25692811    1.3896557   0.10027026         0.01    4.9148279 0.0096556531    108.92392    867.73204 
    5500    88.708341   0.25707451    1.4052308   0.10027026         0.01    4.2791503  0.010737075    111.12173    866.51665 
    5600    89.769145   0.25709546    1.4217877   0.10027026         0.01    4.0781492  0.011723101    109.45972     865.5429 
    5700    90.872472   0.25870443    1.4396887   0.10027026         0.01     4.183632  0.010950211    109.30144    864.59311 
    5800    91.965872   0.25816229    1.4562697   0.10027026         0.01     4.331737  0.010724313    109.14231    863.66622 
    5900    93.039647    0.2570499    1.4735764   0.10027026         0.01    4.5342208  0.010707147     109.2796    862.72132 
    6000    94.106919   0.25821969    1.4904251   0.10027026         0.01     4.540655  0.010628936    99.891209    863.12483 
    6100    95.183007   0.25761798    1.5078078   0.10027026         0.01    3.7247355  0.011929586    102.33834    863.11379 
    6200    96.299953   0.25876498    1.5249011   0.10027026         0.01    4.2714786  0.010710493    110.07626    862.03237 
    6300    97.374192   0.25743931    1.5403145   0.10027026         0.01     3.693571  0.011850271    111.57975     860.7744 
    6400    98.541584   0.25727867    1.5578825   0.10027026         0.01    3.4829115  0.011260196     107.7628    859.99197 
    6500    99.660673   0.25833637    1.5753617   0.10027026         0.01    3.9196175  0.010036459    112.22614     858.6742 
    6600    100.69854   0.25783803    1.5910182   0.10027026         0.01    4.8787035 0.0097788255     109.6079    857.67056 
    6700    101.81236    0.2571635    1.6073653   0.10027026         0.01    4.3946939  0.010871047     110.2565    856.59492 
    6800    102.90419   0.25729308    1.6237048   0.10027026         0.01    4.4963329  0.010906725    112.20297    855.30859 
    6900    103.96587   0.25767001      1.64013   0.10027026         0.01    3.8783747  0.011015397    107.92563     854.5103 
    7000    105.00979    0.2572612    1.6554651   0.10027026         0.01    4.1009632  0.010377825    109.41649    853.54061 
    7100    106.01958   0.25673754    1.6712141   0.10027026         0.01    4.3059824  0.010349915    109.44105     852.5698 
    7200    107.06601   0.25778696    1.6855163   0.10027026         0.01    4.0787716  0.010249838    109.95547     851.5455 
    7300    108.10268   0.25658675    1.7002106   0.10027026         0.01    4.7362574   0.01005817    109.54437    850.56767 
    7400    109.10622   0.25753949    1.7147114   0.10027026         0.01    4.3693436  0.009524986     110.7988    849.46227 
    7500    110.08196   0.25924825    1.7290894   0.10027026         0.01    3.9813052  0.010693781    110.48746    848.39365 
    7600    111.11317   0.25869791     1.745668   0.10027026         0.01    3.9720017 0.0098032014    108.09468    847.57291 
    7700    112.09662   0.25810304    1.7614439   0.10027026         0.01    4.3906586   0.01062307    110.48417    846.50962 
    7800    113.16064   0.25810006    1.7776489   0.10027026         0.01    4.5377316 0.0099316399    109.69206    845.52765 
    7900    114.24632   0.25728354    1.7942882   0.10027026         0.01    4.0398644  0.010527255    109.85412    844.53178 
    8000    115.35352   0.25793647    1.8116298   0.10027026         0.01    3.8178581  0.011114196     109.4256    843.57905 
    8100    116.34685   0.25832351    1.8264812   0.10027026         0.01    3.6245178  0.010291102    106.60038    842.90206 
    8200    117.44579   0.25882448    1.8417832   0.10027026         0.01    3.5830964  0.010919589    100.69468    842.83465 
    8300    118.53812   0.25887821    1.8579936   0.10027026         0.01    3.8467449  0.010406594    105.69116    842.22623 
    8400    119.64804   0.25897938    1.8748076   0.10027026         0.01    3.8627123  0.010486199    110.06052    841.20018 
    8500     120.7169    0.2583912    1.8910573   0.10027026         0.01    3.9743428  0.010994717    109.68859    840.21006 
    8600    121.79704   0.25897821    1.9064776   0.10027026         0.01    4.1989088  0.010893248     107.8388    839.38794 
    8700    122.87862   0.25953476    1.9227152   0.10027026         0.01    4.3658066  0.010502999    109.50742    838.41514 
    8800    123.96641   0.25937555     1.937991   0.10027026         0.01    3.6306015  0.011038149    108.70666    837.51339 
    8900    125.02013   0.25877061    1.9537144   0.10027026         0.01     4.461607  0.010781455    109.96573    836.50345 
    9000    126.06377    0.2593566     1.969658   0.10027026         0.01    4.2040617  0.010262654    108.17888     835.6476 
    9100    127.08656   0.25864329    1.9853649   0.10027026         0.01    4.0328288 0.0096752216    108.86653    834.73192 
    9200    128.09542   0.25903369    1.9999532   0.10027026         0.01     3.839452  0.010742351    109.99817    833.72292 
    9300    129.15597   0.25923561    2.0157292   0.10027026         0.01    4.0887934  0.011094678    110.24749    832.69601 
    9400     130.2585   0.25936663    2.0331544   0.10027026         0.01    3.9289022  0.010999773    108.53156    831.80987 
    9500    131.26435   0.25880262    2.0482958   0.10027026         0.01    3.8643927  0.010425453    108.04167    830.96279 
    9600    132.33822     0.258945    2.0646578   0.10027026         0.01    4.1615573  0.010281894    110.42425    829.92602 
    9700    133.36362   0.25927962    2.0803815   0.10027026         0.01    4.7728811 0.0097759157    108.69423    829.02613 
    9800    134.42625   0.25970028    2.0964811   0.10027026         0.01    3.8846285  0.010310188    110.31015    828.00179 
    9900    135.49433   0.26029895    2.1132775   0.10027026         0.01    3.8566545  0.010798326    110.04937    826.99938 
   10000    136.59813   0.26036677    2.1313588   0.10027026         0.01    3.8226994  0.011499074    109.24473    826.05909 
   10100    137.62668   0.26029504    2.1470285   0.10027026         0.01    4.3351492   0.01070298    109.11028    825.12931 
   10200    138.71828   0.25977443    2.1653312   0.10027026         0.01    3.7055532  0.011367067    111.11531    824.05421 
   10300    139.83167   0.26007709    2.1821144   0.10027026         0.01    3.5229442  0.011279136    109.35881    823.10839 
   10400    140.95315    0.2597429    2.1998479   0.10027026         0.01    3.9677682 0.0095718413    108.00222    822.26213 
   10500    141.92425   0.25966905    2.2158622   0.10027026         0.01    4.6299106 0.0094911463    108.04701    821.41108 
   10600    142.86899   0.25916835     2.230691   0.10027026         0.01    3.9089271  0.010215183    107.95277    820.56544 
   10700    143.89057   0.25895935    2.2459042   0.10027026         0.01    4.2857686  0.011234691    109.30717    819.62249 
   10800    144.94978   0.25955596    2.2625895   0.10027026         0.01    4.2189198  0.010400513    107.78673    818.78666 
   10900    146.03035   0.25903779    2.2801253   0.10027026         0.01     4.093951  0.011460509    106.94582    818.00877 
   11000    147.14977   0.25972612    2.2987027   0.10027026         0.01    4.1004501  0.011185403    107.25263    817.20638 
   11100    148.23812   0.25985519    2.3172413   0.10027026         0.01    4.0968062  0.011059161    108.39157    816.32319 
   11200    149.33961   0.25909004    2.3352108   0.10027026         0.01    4.6318024  0.010190768    108.36749    815.44091 
   11300    150.38197   0.25976251    2.3514506   0.10027026         0.01    4.3414904  0.010569773    109.47004    814.48496 
   11400    151.45117   0.25872923    2.3690312   0.10027026         0.01    4.0809588  0.010474409    110.48769    813.46437 
   11500    152.56296   0.25942769    2.3858845   0.10027026         0.01    4.4305514  0.011261501    109.18211    812.52907 
   11600    153.66509   0.25916222    2.4029034   0.10027026         0.01    3.7773722  0.010911952    108.48294    811.63909 
   11700    154.75849   0.25963417    2.4207079   0.10027026         0.01    3.6495549  0.011147543    109.19891    810.70296 
   11800    155.83752   0.25966999    2.4370611   0.10027026         0.01    4.1416717  0.010743518    108.71088     809.7979 
   11900    156.88519   0.25978793    2.4539401   0.10027026         0.01    3.8747817  0.010479557    109.48167    808.84465 
   12000    157.91278    0.2593936    2.4718782   0.10027026         0.01     4.584028 0.0096310858     105.4382    808.14893 
   12100    158.93158   0.26057452    2.4881951   0.10027026         0.01     4.083557    0.0101829    109.37974    807.20076 
   12200    159.98978   0.25995835    2.5057721   0.10027026         0.01    4.3191711 0.0094875378    108.97364    806.27766 
   12300    160.99056   0.26003111    2.5217544   0.10027026         0.01    4.6653471 0.0099000234    109.01097    805.35242 
   12400    162.03199   0.26005243    2.5385669   0.10027026         0.01    4.6246756  0.010536925    108.12213    804.48057 
   12500    163.09987    0.2597658    2.5555484   0.10027026         0.01    4.4356107  0.010942429    109.58567    803.52141 
   12600    164.18358   0.25993219    2.5723101   0.10027026         0.01    4.3843902  0.010738331    109.39577    802.57398 
   12700      165.248   0.25950906    2.5885564   0.10027026         0.01     4.084379  0.010457047     108.5873    801.67386 
   12800    166.26996   0.25845505    2.6053355   0.10027026         0.01    4.0732892  0.011291325    108.45763    800.78091 
   12900    167.29769   0.25834331    2.6219837   0.10027026         0.01    4.2203389 0.0098603598    107.16634    799.96253 
   13000     168.3239   0.25937579    2.6378481   0.10027026         0.01    4.7145768 0.0099100987    109.05218    799.03439 
   13100    169.33401   0.25939793    2.6535477   0.10027026         0.01    4.1008569  0.010154901     109.4637    798.08354 
   13200     170.3424   0.25969661    2.6689798   0.10027026         0.01    4.3336903  0.010131899    108.44387    797.18977 
   13300    171.36813   0.25946929    2.6852943   0.10027026         0.01    3.8954946  0.010504324    108.25114    796.30626 
   13400    172.42637   0.26018589    2.7012445   0.10027026         0.01    4.1087773  0.011180881    107.23341    795.47882 
   13500    173.50406   0.25936707    2.7179947   0.10027026         0.01    3.8673966   0.01131344    108.01296     794.6067 
   13600    174.62068   0.25911711    2.7347868   0.10027026         0.01    3.7715168  0.011043327     102.8541    794.02879 
   13700    175.71733   0.25881153    2.7511592   0.10027026         0.01    3.6000592  0.011109213     98.70869    793.70233 
   13800     176.7541   0.26002473    2.7659075   0.10027026         0.01    3.7468219  0.010431549    97.753989    793.42773 
   13900    177.82589   0.25969217     2.781767   0.10027026         0.01    3.7176328  0.010744053    107.93343    792.54473 
   14000    178.90208   0.25907241    2.7969738   0.10027026         0.01    3.9532105  0.010781224    105.64024    791.78466 
   14100    180.01311   0.25953879    2.8128113   0.10027026         0.01     3.921109  0.011664665    108.75866    790.85659 
   14200    181.14509   0.26040387    2.8281669   0.10027026         0.01    3.6641385  0.011194656    107.61877    789.98748 
   14300    182.25845   0.25977794    2.8437001   0.10027026         0.01    4.2603545   0.01126346    108.35444    789.07974 
   14400     183.3693   0.25946895    2.8578596   0.10027026         0.01    3.8831248  0.011375585    108.20439    788.17938 
   14500    184.47937   0.25940749    2.8723212   0.10027026         0.01    4.0368342  0.010407771    108.33496    787.27213 
   14600     185.5918   0.25889964     2.887906   0.10027026         0.01    3.7490522  0.011197049    110.89254    786.24014 
   14700    186.71395    0.2592505    2.9040189   0.10027026         0.01    3.5868992  0.010725153    108.63213     785.3188 
   14800     187.7973   0.25939849    2.9185094   0.10027026         0.01    3.5339431  0.010662825    107.71136    784.44277 
   14900    188.87032   0.26033189     2.933047   0.10027026         0.01    4.1171399  0.011317674    108.32173    783.53616 
   15000    189.96302   0.25972612    2.9484675   0.10027026         0.01    3.7300037 0.0097043357    105.44085    782.77226 
   15100    190.94392   0.25949722    2.9622956   0.10027026         0.01    4.0079783 0.0093168293    108.83144    781.83979 
   15200    192.00642   0.25992644    2.9785035   0.10027026         0.01    3.9488629  0.011006667    109.71903    780.86603 
   15300    193.08044   0.25886633    2.9930931   0.10027026         0.01    4.1348012  0.010993965    108.66647    779.94195 
   15400    194.12673   0.25917084    3.0076167   0.10027026         0.01    4.0140444 0.0097807564    108.06196    779.04621 
   15500    195.18531     0.260129    3.0218958   0.10027026         0.01    4.0096038  0.010933457    107.84892    778.16005 
   15600    196.23669   0.25993084    3.0364196   0.10027026         0.01    3.9321495  0.010752606    109.31483    777.20609 
   15700    197.34279   0.25813833    3.0519003   0.10027026         0.01    3.6989406    0.0112118    107.57522    776.33206 
   15800    198.46619   0.25990098    3.0678873   0.10027026         0.01      3.75599  0.010898706    110.40466    775.33037 
   15900    199.56581   0.25961565    3.0830319   0.10027026         0.01    4.2845494  0.011305626    110.46904    774.32709 
   16000    200.68478   0.25928793     3.098941   0.10027026         0.01    4.0132684  0.011168346    107.20296    773.46984 
   16100    201.80576   0.25956502    3.1148434   0.10027026         0.01    3.8940349  0.011419966    108.64133    772.54728 
   16200     202.8849   0.25954873    3.1298892   0.10027026         0.01    4.1686476  0.010437303    108.57173     771.6278 
   16300    203.93682   0.25965529    3.1457152   0.10027026         0.01    4.5939914 0.0098873741     109.4661    770.66967 
   16400    204.98986   0.25997072    3.1606813   0.10027026         0.01    3.6581268  0.010573483    108.46103    769.75522 
   16500    205.99637   0.25974964    3.1750967   0.10027026         0.01    5.7159572 0.0086459568     107.6627    768.87528 
   16600    206.89279   0.26024073    3.1876474   0.10027026         0.01    5.4289227 0.0088570126    107.26528    768.01205 
   16700    207.79718   0.25941877    3.1997722   0.10027026         0.01    4.0615519 0.0096542853    107.71708    767.12849 
   16800    208.75236   0.26032725     3.212017   0.10027026         0.01    4.9992276 0.0096090652    108.11921    766.22729 
   16900     209.7289    0.2599335    3.2254094   0.10027026         0.01    4.7098766 0.0098351182    107.57464    765.34883 
   17000    210.71814   0.26008838    3.2397014   0.10027026         0.01    4.7855433   0.01015665    107.55707    764.47051 
   17100    211.69534   0.25927332    3.2531801   0.10027026         0.01     4.974611 0.0092940683    106.58199    763.63283 
   17200    212.64095   0.25969223    3.2657745   0.10027026         0.01    4.9105701 0.0097387669    108.96011    762.69539 
   17300    213.62508   0.25980568    3.2799116   0.10027026         0.01    4.5758394  0.010358018    107.79452    761.80563 
   17400    214.63667    0.2597201    3.2950065   0.10027026         0.01    4.3827683  0.010654332    107.38796     760.9321 
   17500    215.69791    0.2602584    3.3112435   0.10027026         0.01    4.0320536  0.010347274    107.86091    760.03866 
   17600    216.81212   0.25990257    3.3272435   0.10027026         0.01    4.0776341  0.011515199    108.66295    759.11281 
   17700    217.94827   0.26039492    3.3432032   0.10027026         0.01    3.9771333  0.011243288    107.85322    758.21914 
   17800    219.02253    0.2606341    3.3577137   0.10027026         0.01    3.8995458 0.0098035114    109.68893    757.25344 
   17900    220.04831   0.26071682     3.370876   0.10027026         0.01    4.3829853  0.010637838     109.3508    756.30127 
   18000    221.11178   0.26089452     3.384516   0.10027026         0.01    4.6779118   0.01030173    109.26024    755.35297 
   18100    222.16036   0.26019648     3.397984   0.10027026         0.01    3.7969132  0.010928292    108.20216    754.44553 
   18200    223.23141   0.26076225    3.4123264   0.10027026         0.01    4.3425159  0.010228651    107.60671     753.5609 
   18300    224.27641   0.25907595    3.4267962   0.10027026         0.01    3.6392788  0.010456683    109.02143    752.62194 
   18400    225.37002   0.25969452     3.441627   0.10027026         0.01    4.6585181  0.010703155    107.39571     751.7448 
   18500    226.45065   0.26057599    3.4565447   0.10027026         0.01    3.8078085  0.010524585    108.50587     750.8251 
   18600    227.45455   0.25930944    3.4708354   0.10027026         0.01    4.0732483  0.009641917    110.47565    749.83347 
   18700    228.40561   0.25946075    3.4834574   0.10027026         0.01    3.9654159 0.0098175169    107.89884    748.93674 
   18800    229.45795   0.25898611    3.4980084   0.10027026         0.01     4.269084  0.010307074    108.37628    748.02206 
   18900    230.54533   0.25986814     3.512505   0.10027026         0.01     4.555988  0.010226769    108.85291    747.08996 
   19000    231.55609   0.25866994    3.5259643   0.10027026         0.01    4.1174281  0.010574633    107.44405    746.20935 
   19100    232.65342   0.25853795     3.540539   0.10027026         0.01    4.1699002  0.010328182    108.48187     745.2905 
   19200    233.71185   0.25929481    3.5541401   0.10027026         0.01    3.6029403  0.010562173      108.508    744.37069 
   19300    234.84765   0.25982935    3.5699286   0.10027026         0.01    4.0338623  0.011657675      107.129    743.50047 
   19400    236.00414   0.26079597    3.5843025   0.10027026         0.01    4.0720725  0.011684444    108.80767    742.56976 
   19500    237.08553   0.25902438     3.598195   0.10027026         0.01    3.7074335 0.0095030038    109.05043    741.63072 
   19600    238.09271   0.26001324    3.6113313   0.10027026         0.01    3.8725455  0.010061174    111.20932    740.61889 
   19700    239.16478   0.25922728    3.6256946   0.10027026         0.01    4.1598613  0.010882875    109.57454    739.66289 
   19800    240.19916   0.25898096    3.6403337   0.10027026         0.01    4.4503088  0.010814768    108.55203    738.74214 
   19900    241.28186   0.25901712    3.6561627   0.10027026         0.01    3.9856337  0.011132881    108.41214    737.82617 
   20000    242.36209   0.25988898    3.6721926   0.10027026         0.01    3.9097792  0.010673159    106.92088     736.9616 
   20100    243.41766   0.25830655    3.6863737   0.10027026         0.01    4.2817162  0.010878703    107.56923    736.07391 
   20200    244.48005   0.26001067    3.7012373   0.10027026         0.01    3.8278574  0.010920205    108.60912    735.15065 
   20300    245.52686   0.25877308    3.7169584   0.10027026         0.01    4.2378293 0.0098472072    107.34198    734.27009 
   20400    246.50922   0.25940465    3.7311216   0.10027026         0.01    3.7805815  0.010330819    107.90467    733.37007 
   20500    247.57201   0.25938418    3.7470963   0.10027026         0.01    3.7933252  0.011501528    106.38205    732.52122 
   20600    248.66298   0.25907561      3.76421   0.10027026         0.01    4.4525228  0.010079954    109.27994    731.57542 
   20700    249.73011   0.25864577    3.7808303   0.10027026         0.01    3.9853509  0.011145213    108.49801    730.65517 
   20800    250.82371   0.25903241    3.7980173   0.10027026         0.01     4.342793  0.010379793    108.02728     729.7502 
   20900    251.86281   0.25983235    3.8152234   0.10027026         0.01      4.28644   0.01007483    108.02929    728.84498 
   21000    252.91195   0.25970349    3.8312251   0.10027026         0.01    4.2458897  0.010729205    109.30335    727.89896 
   21100    253.99255   0.25972644    3.8476106   0.10027026         0.01    3.9206653  0.010869761    107.46483    727.01177 
   21200    255.04403   0.26032765    3.8633099   0.10027026         0.01    3.8970992   0.01060915    109.73913    726.05249 
   21300    256.15571   0.25782331    3.8798203   0.10027026         0.01    3.9537604  0.010223855    110.24497    725.07821 
   21400    257.13826   0.25781351    3.8943814   0.10027026         0.01    4.7381106  0.010411933    109.74105    724.11985 
   21500    258.20923   0.25822168    3.9094312   0.10027026         0.01    3.9643569  0.010745074    108.69364      723.194 
   21600    259.26519   0.25917039    3.9249704   0.10027026         0.01    3.9567254 0.0099287513    110.40757    722.21636 
   21700    260.23024   0.25971601    3.9395406   0.10027026         0.01    4.0256947 0.0093075854    107.71404    721.32111 
   21800    261.22673   0.25912033     3.953409   0.10027026         0.01    4.1818236  0.010802698    109.05768    720.38452 
   21900    262.27416   0.25896988    3.9682943   0.10027026         0.01    4.7945797 0.0094358147    109.19962    719.44386 
   22000      263.265   0.25826491     3.983276   0.10027026         0.01    4.0868369  0.010269203    108.07716    718.53716 
   22100    264.34624     0.259533    3.9983396   0.10027026         0.01    3.6760344  0.010716802     108.0574    717.63087 
   22200     265.3522   0.25790855    4.0133267   0.10027026         0.01    3.6269217  0.010354584    109.51703    716.68119 
   22300    266.37717   0.25987735    4.0271683   0.10027026         0.01    4.6015432  0.010661322    109.28162     715.7387 
   22400    267.48662   0.26003862    4.0430219   0.10027026         0.01    3.8278832  0.011008614    108.25511     714.8265 
   22500     268.5663   0.25909872    4.0578475   0.10027026         0.01    3.6576055  0.010638776    108.69091    713.90145 
   22600    269.62911   0.25801047    4.0729556   0.10027026         0.01    3.6875014  0.011035708    108.96985    712.96837 
   22700    270.67507   0.25919735    4.0870734   0.10027026         0.01       3.8979 0.0098984266    107.21332    712.08663 
   22800    271.76921   0.25815289    4.1035099   0.10027026         0.01    4.0985992  0.011220508    107.85916    711.18553 
   22900    272.87071   0.25894017    4.1187735   0.10027026         0.01    4.2480439  0.011146663    108.01073    710.27983 
   23000    273.95811   0.25808728    4.1344008   0.10027026         0.01    4.5689779   0.01030879    107.35591    709.39285 
   23100     275.0305   0.25904049     4.148425   0.10027026         0.01     3.806593  0.010807138    108.51356    708.47241 
   23200    276.11286   0.25946349    4.1645413   0.10027026         0.01    4.4130361   0.01109211    108.09502    707.56377 
   23300    277.25864   0.25991247     4.180547   0.10027026         0.01    3.7254433  0.011357159    109.32774    706.62065 
   23400    278.35531   0.25901059    4.1963117   0.10027026         0.01    3.8593833   0.01020708    108.00639    705.71441 
   23500    279.40444    0.2601398    4.2112752   0.10027026         0.01    3.7843425  0.011497762    109.03758    704.77949 
   23600     280.4995   0.25876257    4.2275706   0.10027026         0.01     3.969135  0.010927668    109.04235     703.8446 
   23700    281.57847   0.25857558     4.243598   0.10027026         0.01    3.8964662  0.011630244    108.38474    702.92776 
   23800    282.72153   0.25807031    4.2610711   0.10027026         0.01    4.4037928   0.01130321    108.38124    702.01098 
   23900    283.81356   0.25857722     4.276128   0.10027026         0.01    3.9880112  0.011031187    107.81078    701.10969 
   24000    284.93046    0.2596601    4.2918344   0.10027026         0.01    4.0910725  0.011213628    107.03703    700.22942 
   24100    286.04069   0.25828302     4.307838   0.10027026         0.01    4.3096506  0.011004207    107.79953    699.32788 
   24200    287.15245   0.25832608    4.3242952   0.10027026         0.01    3.7828226  0.010982456    109.72985    698.37502 
   24300    288.25557   0.25911587    4.3412275   0.10027026         0.01    4.3579374  0.011042201     110.6928     697.3978 
   24400    289.36396   0.25901282    4.3578897   0.10027026         0.01    4.1471687  0.010846617    107.90864     696.4934 
   24500    290.44628   0.25860798    4.3739227   0.10027026         0.01    4.1456438  0.011210838     108.0685     695.5846 
   24600    291.54966   0.25953577    4.3896716   0.10027026         0.01    4.3657996  0.010355662    108.72047    694.65865 
   24700     292.5718   0.25926164    4.4032029   0.10027026         0.01    4.9903335 0.0092565539    108.05495    693.75003 
   24800    293.58142   0.25832019    4.4169954   0.10027026         0.01    4.7294689 0.0099944101    109.79649    692.79676 
   24900    294.63885   0.25835259    4.4324052   0.10027026         0.01    4.3871148  0.010079151    109.33934    691.85532 
   25000     295.7076   0.25846918    4.4466188   0.10027026         0.01    3.6564411  0.010945963    106.63038    690.98379 
   25100    296.66879   0.25808994    4.4592719   0.10027026         0.01    4.1093941  0.011083817    107.03829    690.10107 
   25200    297.75602   0.25917974    4.4736394   0.10027026         0.01    4.2030095  0.010679012     109.4783    689.15614 
   25300    298.78485   0.25846813    4.4883953   0.10027026         0.01      4.19671  0.010586175     108.9758    688.22389 
   25400    299.88293   0.25946844    4.5050678   0.10027026         0.01    3.7413703  0.011386451    109.14756    687.28752 
   25500    300.95128   0.26055258    4.5195751   0.10027026         0.01    4.3165232  0.010521185    108.60628    686.36464 
   25600    301.98235   0.25934836     4.533556   0.10027026         0.01    4.5657437  0.010014226    108.38381    685.44728 
   25700    303.00498   0.25945767    4.5474717   0.10027026         0.01    3.8772592  0.012038079    109.47507    684.50329 
   25800    304.08934   0.25837251    4.5614938   0.10027026         0.01    4.1317923  0.010883055    107.86509    683.59874 
   25900    305.17493   0.25796855    4.5763793   0.10027026         0.01    4.2890787  0.010450108    110.79054    682.62398 
   26000    306.23982   0.25866705    4.5909245   0.10027026         0.01    4.2090535  0.010419121    108.48212    681.70444 
   26100    307.34705   0.25992601    4.6038513   0.10027026         0.01     3.833951  0.010424846    109.77635    680.75411 
   26200    308.47191   0.25957654    4.6192118   0.10027026         0.01    3.9104936  0.011116641    109.74455    679.80483 
   26300    309.56891   0.25959587    4.6346731   0.10027026         0.01    4.2169191  0.010770251    107.22894    678.91574 
   26400    310.69243   0.25938113    4.6488051   0.10027026         0.01    4.1731092  0.011519805    107.96933    678.00849 
   26500    311.83255    0.2604354    4.6628799   0.10027026         0.01    4.3555516  0.011230167     108.4601    677.08948 
   26600    312.96701   0.25948988    4.6776228   0.10027026         0.01    3.9851816  0.011790048    110.45781    676.12443 
   26700    314.13051   0.25839925    4.6930738   0.10027026         0.01    3.8458456  0.010992399    110.58263    675.15703 
   26800    315.26594   0.25948272    4.7091355   0.10027026         0.01    4.5768579  0.010511927    109.51117    674.21426 
   26900    316.32518   0.26013025    4.7246551   0.10027026         0.01    3.8605621  0.011039457    109.34099    673.27557 
   27000      317.389   0.26028689    4.7403119   0.10027026         0.01    4.5940408  0.010522496    109.57812    672.33171 
   27100    318.46294    0.2588201    4.7569929   0.10027026         0.01    3.6380506  0.010764374    108.92299    671.40285 
   27200    319.52895   0.25935874    4.7715157   0.10027026         0.01    3.5914359  0.010327057    109.54907    670.46002 
   27300    320.60755   0.26111536    4.7863792   0.10027026         0.01    4.3677427  0.010953475    106.79845    669.58002 
   27400    321.68816    0.2614989    4.8029501   0.10027026         0.01    3.8822039  0.010298786    108.41707    668.66257 
   27500    322.74202   0.26022615    4.8188952   0.10027026         0.01    3.8313994  0.010986934    110.10319    667.70784 
   27600    323.82134   0.25999488    4.8344342   0.10027026         0.01    4.0194398  0.010877411    109.14302    666.77441 
   27700    324.88131   0.26038844    4.8502585   0.10027026         0.01    4.2178921  0.010687901    111.47874      665.791 
   27800    325.95472   0.26068043    4.8668522   0.10027026         0.01    4.1014257  0.010894033    109.68859    664.84623 
   27900    327.04397   0.25924157    4.8824826   0.10027026         0.01    4.1392014 0.0099249774    106.67793    663.96819 
   28000    328.15982   0.25947549    4.8983164   0.10027026         0.01    4.3141814  0.011135748    107.25573    663.07674 
   28100    329.24279   0.25978151    4.9146152   0.10027026         0.01    3.9389042  0.010832964    107.54584    662.17856 
   28200    330.32306   0.26089361    4.9299977   0.10027026         0.01    4.1414116 0.0090174865    110.23755    661.22235 
   28300    331.23457   0.26050084    4.9433011   0.10027026         0.01    4.2868416 0.0091300519    107.63938    660.32197 
   28400    332.11841   0.25987379    4.9554617   0.10027026         0.01    4.6165655 0.0087421727    108.84116    659.39552 
   28500    333.13349   0.26021709    4.9699037   0.10027026         0.01    4.6244057  0.010454745     107.6314    658.49503 
   28600    334.10755   0.26046716    4.9847061   0.10027026         0.01    4.0168105 0.0089329844    107.32978    657.60086 
   28700    335.12339   0.26067815    4.9996257   0.10027026         0.01    4.0076288  0.010644606    107.77626    656.69684 
   28800    336.23306   0.26125526    5.0152504   0.10027026         0.01    4.0388447  0.010951562    108.87506     655.7695 
   28900     337.2898   0.26033417    5.0310865   0.10027026         0.01    4.1965103 0.0087048785    107.57859    654.86946 
   29000    338.25366   0.26106919    5.0455102   0.10027026         0.01    3.9824624 0.0097582114    108.28862    653.95429 
   29100    339.19789   0.26098313    5.0597511   0.10027026         0.01    4.0212733 0.0099886632    109.10719    653.02218 
   29200     340.2095    0.2600382    5.0746411   0.10027026         0.01      3.85564  0.010784298    109.91596    652.07383 
   29300    341.29387   0.26068348    5.0907292   0.10027026         0.01    3.6411584   0.01077091    110.09735    651.12213 
   29400    342.41364   0.25987509    5.1070263   0.10027026         0.01    4.0704261  0.010998533    107.91688    650.21479 
   29500    343.53864   0.25960461    5.1227362   0.10027026         0.01     3.974453   0.01080645    108.39345    649.29758 
   29600    344.63091   0.26067018    5.1391536   0.10027026         0.01    4.5614555    0.0109038    107.40575    648.40052 
   29700    345.69374   0.26039296    5.1551036   0.10027026         0.01    4.0115609  0.010552896    110.22185    647.44692 
   29800    346.73521   0.26084548     5.171479   0.10027026         0.01    3.9625269  0.010146065    106.75732    646.56299 
   29900     347.8216   0.26065497    5.1877239   0.10027026         0.01    4.4084785   0.01038236    108.04865    645.65246 
   30000    348.85892   0.26104709    5.2026991   0.10027026         0.01    4.2680128  0.010021978    107.22804    644.75836 
   30100    349.94513   0.25988136    5.2185898   0.10027026         0.01    4.6274853  0.010764386    109.67172    643.81575 
   30200    351.03515   0.25953751    5.2346957   0.10027026         0.01    3.9597404  0.010791032    109.34698     642.8796 
   30300    352.07679   0.26060373    5.2505509   0.10027026         0.01    3.7493419 0.0098662065    108.26707    641.96457 
   30400    353.10842    0.2604855    5.2654166   0.10027026         0.01    4.1309776 0.0094346739    107.48089    641.06496 
   30500    354.14907   0.26013531    5.2802025   0.10027026         0.01    3.7864827  0.010760093    109.48847    640.12627 
   30600    355.23161   0.26056252    5.2952151   0.10027026         0.01    3.8325021  0.010850142    108.48072    639.20699 
   30700    356.33159   0.25938884    5.3102634   0.10027026         0.01    3.8300894  0.011675463    110.06196    638.25779 
   30800    357.37852   0.26059256    5.3248825   0.10027026         0.01    3.8678791  0.011168522    108.67097    637.33499 
   30900     358.4588   0.26091491    5.3404399   0.10027026         0.01    4.3353517  0.010509252    106.61946    636.45181 
   31000    359.47809    0.2606664    5.3545457   0.10027026         0.01    4.2438507  0.011067949    107.46841    635.55178 
   31100    360.51868   0.26063029    5.3700046   0.10027026         0.01     5.045333 0.0096896826    107.52781    634.65041 
   31200    361.61238   0.25946741    5.3859092   0.10027026         0.01    3.7835747  0.010865048    109.15063    633.71837 
   31300    362.70087   0.25989772    5.3995262   0.10027026         0.01    4.1683705  0.010785458    108.46905    632.79906 
   31400    363.82329   0.26011405    5.4151334   0.10027026         0.01    3.9326255  0.011320249    108.87198    631.87229 
   31500    364.96368   0.26079236    5.4319336   0.10027026         0.01    4.0337661   0.01060053     108.7336    630.94811 
   31600    366.07407   0.25965461    5.4476359   0.10027026         0.01    3.6604231  0.010915093    108.76586    630.02337 
   31700    367.11582   0.26115447    5.4620686   0.10027026         0.01    3.9714575 0.0099676685    110.46491    629.06819 
   31800    368.12745   0.25974675    5.4771533   0.10027026         0.01     3.688323  0.010956963    110.07869    628.12014 
   31900    369.21054   0.25929069    5.4922321   0.10027026         0.01    3.7562895  0.010261075    110.61322    627.16297 
   32000    370.29485   0.25957264    5.5088819   0.10027026         0.01    4.2034457  0.010316607    109.03356    626.23396 
   32100    371.35117   0.25945167    5.5257125   0.10027026         0.01    3.8780724  0.011757593    107.56029     625.3316 
   32200    372.45002   0.26033454    5.5422289   0.10027026         0.01    4.1254721   0.01009566    107.82333    624.42429 
   32300    373.49763   0.26017038    5.5583963   0.10027026         0.01    4.0447426  0.010242586    107.93179     623.5149 
   32400    374.50578   0.25982049    5.5743342   0.10027026         0.01    4.3279404  0.010017623    110.05835    622.56806 
   32500    375.54613   0.25994762    5.5900381   0.10027026         0.01    4.1397709  0.010335387    107.71382    621.66253 
   32600    376.53758   0.25947675    5.6053024   0.10027026         0.01    4.7429338 0.0095550021    108.74093    620.73872 
   32700    377.48473   0.25850639    5.6201108   0.10027026         0.01    4.7785231 0.0095212976    109.76247    619.79733 
   32800    378.41302   0.25918628    5.6351148   0.10027026         0.01     5.117367 0.0091687346    107.68622    618.89211 
   32900    379.34388   0.26008768    5.6487916   0.10027026         0.01    4.1540337  0.010454929    109.34125    617.95808 
   33000    380.36686    0.2596052    5.6639689   0.10027026         0.01    4.2383491  0.010045801    107.26783    617.06007 
   33100    381.36361   0.26014454    5.6801267   0.10027026         0.01    4.7626183 0.0095162535    108.73453    616.13642 
   33200    382.34618   0.25919333    5.6959404   0.10027026         0.01    3.8458364 0.0097404248    109.88817    615.19338 
   33300    383.28991    0.2594597    5.7098943   0.10027026         0.01    3.8551326 0.0089270468    106.87906    614.30185 
   33400     384.1909   0.25973285    5.7234897   0.10027026         0.01    4.1747247 0.0091669638     110.5494    613.34812 
   33500    385.16215   0.25888904     5.738376   0.10027026         0.01     4.214904  0.010051403    109.59996    612.41024 
   33600    386.19566   0.25948643    5.7539135   0.10027026         0.01    3.9984551  0.010015889     109.8585    611.46826 
   33700    387.23707   0.25919586    5.7689123   0.10027026         0.01    3.8853604  0.010039859    108.49082    610.54905 
   33800    388.25048   0.25912641    5.7832998   0.10027026         0.01    3.7157545  0.010748632    109.24997    609.61728 
   33900    389.30772   0.25907033    5.7972533   0.10027026         0.01    3.7184615  0.010386398    107.95393    608.70703 
   34000    390.37169   0.25925551    5.8113668   0.10027026         0.01    3.7012202  0.010395892    108.23225    607.79207 
   34100    391.44458   0.25890592    5.8257115   0.10027026         0.01    3.7454434  0.011140021    108.31185    606.87574 
   34200     392.5246   0.25929025    5.8400318   0.10027026         0.01    4.0992366  0.009774182    109.23924    605.94428 
   34300    393.47059   0.25866248    5.8530581   0.10027026         0.01    4.8693346 0.0095615892    109.14265    605.01448 
   34400    394.44268    0.2594549    5.8658159   0.10027026         0.01     4.679088 0.0091322373    108.85172    604.08942 
   34500    395.37399   0.25854412    5.8780212   0.10027026         0.01    4.2371546 0.0097659182    108.46047    603.17069 
   34600    396.38262    0.2585595    5.8922104   0.10027026         0.01    4.2891707  0.010408831    107.72146     602.2639 
   34700     397.4208   0.25898904    5.9067861   0.10027026         0.01    4.2862447  0.010629533    108.59062      601.343 
   34800    398.48844   0.25964102    5.9219307   0.10027026         0.01    4.0967735 0.0099590185    106.81226    600.45083 
   34900    399.46506   0.25872887    5.9357305   0.10027026         0.01    3.8395355  0.009809901     109.3612     599.5177 
   35000    400.47134   0.25980074    5.9490574   0.10027026         0.01    3.5332024  0.011012881    105.01026    598.65504 
   35100    401.51507   0.26057692    5.9634503   0.10027026         0.01     3.897578  0.010162404    98.600278    597.90634 
   35200    402.57256   0.25912334    5.9780165   0.10027026         0.01    3.7887034  0.011760598    109.41661    596.97156 
   35300     403.6413   0.26098774    5.9926008   0.10027026         0.01    4.3629794 0.0095974898    109.17887    596.04055 
   35400    404.69989   0.25940224    6.0064546   0.10027026         0.01    4.4793653  0.010957792    108.27679    595.12355 
   35500    405.69343   0.25980323    6.0205685   0.10027026         0.01    4.0968061  0.010264005    108.95703    594.19604 
   35600    406.62528   0.26157251     6.033753   0.10027026         0.01     5.505832 0.0090060776    108.85658    593.27011 
   35700    407.61964   0.26125486    6.0479168   0.10027026         0.01    4.0119857  0.009956626    107.56863    592.36403 
   35800     408.5951   0.25877434    6.0624086   0.10027026         0.01    4.2738721 0.0096733623    108.34143    591.44594 
   35900    409.62015   0.25936077    6.0758653   0.10027026         0.01     3.686807  0.010799229    108.37208    590.52734 
   36000    410.68084   0.25990397    6.0912565   0.10027026         0.01    4.0523155  0.010173985    105.90032    589.64702 
   36100    411.62555   0.25974248    6.1049818   0.10027026         0.01    4.0367677 0.0090106059    105.57065    588.77156 
   36200    412.52629    0.2601634    6.1176893   0.10027026         0.01    4.6711673 0.0094353158    110.25917    587.82471 
   36300     413.4808   0.25998578    6.1308049   0.10027026         0.01    3.9215202  0.009584407    111.37643    586.86211 
   36400    414.44749   0.25997526     6.145029   0.10027026         0.01    4.0931637 0.0097951867    109.08315    585.93286 
   36500    415.42034   0.26031967    6.1587667   0.10027026         0.01    4.5139202 0.0093698161    108.55052     585.0115 
   36600    416.48098   0.26079748    6.1742832   0.10027026         0.01    3.7043356   0.01137202    108.59295    584.08951 
   36700    417.58299   0.25999034    6.1896347   0.10027026         0.01    3.7848724   0.01154441    107.47083    583.18412 
   36800    418.69217   0.25997077    6.2048481   0.10027026         0.01    4.2165767  0.010316309    107.34637    582.28044 
   36900    419.76499   0.26063819    6.2215628   0.10027026         0.01    4.2440142 0.0093587342    108.34753    581.36189 
   37000    420.76782   0.26002102    6.2354887   0.10027026         0.01    3.8546198    0.0108496    108.40062    580.44255 
   37100    421.84741    0.2598317    6.2506824   0.10027026         0.01    4.1421899  0.010625364    107.41323    579.53757 
   37200    422.84777   0.25967345    6.2654863   0.10027026         0.01    4.1670191 0.0093344235    108.36617    578.61862 
   37300    423.77172   0.25971704     6.277986   0.10027026         0.01    4.1436553 0.0098409601    108.52285    577.69742 
   37400     424.8036   0.25984795    6.2923469   0.10027026         0.01    4.3617453   0.01015732    109.54354    576.76185 
   37500    425.80917   0.25924714    6.3064086   0.10027026         0.01    4.1293483  0.010757558    108.97234    575.83437 
   37600    426.79747   0.26020844    6.3214841   0.10027026         0.01    4.9288117 0.0097699029     110.8274    574.88145 
   37700     427.7843   0.25913319    6.3362156   0.10027026         0.01    4.2690266  0.010370679    109.15566    573.95164 
   37800    428.84814   0.26098185    6.3512612   0.10027026         0.01    3.8924873  0.010449461    109.72032    573.01414 
   37900    429.88225   0.26011365    6.3671711   0.10027026         0.01    4.4687278   0.01006989    109.11658    572.08504 
   38000    430.88111   0.26070405    6.3817973   0.10027026         0.01    4.5456943   0.01044042     106.9377    571.18647 
   38100    431.90345   0.26026026    6.3969035   0.10027026         0.01    4.4002678  0.010469778    107.38221    570.28142 
   38200    432.96454   0.25922958    6.4136032   0.10027026         0.01    3.8024494  0.010952401    107.89034    569.36914 
   38300    434.04177   0.26041239    6.4298406   0.10027026         0.01    3.8883935  0.010714025    109.78057    568.43108 
   38400    435.11719   0.25918807    6.4453828   0.10027026         0.01    3.5590921  0.010759584    109.06957    567.50268 
   38500    436.16148   0.25967731    6.4603631   0.10027026         0.01    3.8188833 0.0097369407    108.66058    566.57985 
   38600    437.18391   0.26008928    6.4756706   0.10027026         0.01     4.978974 0.0098027014    108.60687    565.65776 
   38700    438.23923    0.2609296    6.4927193   0.10027026         0.01    4.5177894   0.01084224    108.19465    564.74124 
   38800    439.29717   0.26082701    6.5081564   0.10027026         0.01    3.8863683  0.010649548    108.60428    563.81918 
   38900    440.36128   0.25998595      6.52356   0.10027026         0.01    3.8175673 0.0098458647    108.83811    562.89401 
   39000     441.3853   0.25949861    6.5399114   0.10027026         0.01    3.8879223  0.010426031    108.51058    561.97322 
   39100    442.34327   0.25959854    6.5538598   0.10027026         0.01    3.9717469 0.0098482088    108.60358    561.05119 
   39200    443.36658    0.2603709    6.5685047   0.10027026         0.01    3.9183213  0.011134114    107.63452    560.14203 
   39300    444.41966   0.25985265    6.5828928   0.10027026         0.01    4.1094982  0.010303789    109.16779    559.21261 
   39400    445.42436   0.25977141    6.5976944   0.10027026         0.01    3.8880694 0.0099221944     107.8715    558.30019 
   39500    446.49288   0.25943509    6.6138404   0.10027026         0.01    4.2821396  0.010512452    111.60739    557.34017 
   39600    447.59179    0.2604621    6.6299863   0.10027026         0.01    4.0352461  0.011547149    110.03038    556.40005 
   39700    448.60164   0.26077408    6.6448825   0.10027026         0.01    4.4042145  0.010650507    107.89895    555.48737 
   39800    449.67678   0.26059822    6.6621654   0.10027026         0.01    4.4656721 0.0099538606    110.66024    554.53964 
   39900    450.70197   0.25919598      6.67791   0.10027026         0.01    4.4913071  0.010375986    108.50354    553.61918 
   40000    451.74577   0.25952385     6.694431   0.10027026         0.01    4.4487486  0.010827795    107.49438    552.71169 
   40100    452.83035   0.25945588    6.7114143   0.10027026         0.01    3.8528096  0.010830635    107.70572    551.80136 
   40200    453.91626   0.26030107    6.7283762   0.10027026         0.01    4.0197339  0.011294811    108.91988    550.87555 
   40300    455.02422   0.25884509    6.7452952   0.10027026         0.01    4.0515141  0.010951122    108.46223    549.95551 
   40400    456.06262   0.25978144    6.7605606   0.10027026         0.01    4.0190193  0.010886353    108.95394    549.02933 
   40500    457.14459   0.26022265    6.7776465   0.10027026         0.01    3.9662304  0.011585043    107.56769    548.12056 
   40600    458.25128   0.25907236    6.7949176   0.10027026         0.01    4.0212799   0.01160249    108.13699    547.20454 
   40700    459.33182   0.25932503    6.8110004   0.10027026         0.01    4.2828258  0.010465773    109.75926    546.26855 
   40800    460.39176   0.25976071    6.8274728   0.10027026         0.01    3.9895574  0.011010911    109.54835    545.33523 
   40900    461.45893   0.25994419    6.8436477   0.10027026         0.01    3.4013518  0.011049734    108.63011    544.41316 
   41000    462.52754   0.25966323    6.8597006   0.10027026         0.01    4.0286736  0.010937589    107.80729    543.50121 
   41100     463.6064   0.25956101    6.8758844   0.10027026         0.01    3.6753356  0.010373107    105.94906     542.6125 
   41200     464.6758   0.25970149    6.8912254   0.10027026         0.01    4.0923109  0.010538378    107.61168     541.7027 
   41300    465.77162   0.26068604    6.9071156   0.10027026         0.01    4.1611253   0.01042158    109.24317    540.77309 
   41400    466.84915   0.25946909    6.9238409   0.10027026         0.01    4.5665784  0.010789376    107.79801    539.86092 
   41500    467.80832   0.26025634    6.9378792   0.10027026         0.01    4.6494284 0.0099994475    108.97936     538.9345 
   41600    468.82395   0.25937108    6.9532199   0.10027026         0.01     4.241279  0.010376183    107.83986    538.02173 
   41700    469.80976   0.26044793    6.9675919   0.10027026         0.01    4.2033226 0.0099292586    107.56145    537.11224 
   41800    470.78283   0.26007751    6.9816321   0.10027026         0.01    4.6049313  0.010561796    105.88957     536.2231 
   41900     471.8271   0.26042842    6.9963456   0.10027026         0.01    4.4158347  0.010695238    108.35142    535.30395 
   42000    472.90334   0.25896514    7.0120782   0.10027026         0.01    4.2111857  0.010868497    106.46779    534.40732 
   42100    473.92388   0.25981331    7.0270615   0.10027026         0.01    4.1729159  0.010180525    108.04236    533.49166 
   42200    474.93996   0.26034507    7.0412221   0.10027026         0.01    4.1739289  0.010762809    109.92985    532.55419 
   42300    475.98601   0.26013369    7.0558542   0.10027026         0.01    4.2044534  0.010554678    108.28428    531.63571 
   42400    476.97056    0.2603352    7.0707871   0.10027026         0.01    4.6446097 0.0098496947    107.72206    530.72376 
   42500     477.9842   0.26121478    7.0863685   0.10027026         0.01    3.7366069  0.010031304    107.62814    529.81282 
   42600    479.05331   0.26021648     7.103359   0.10027026         0.01     4.135369  0.011307822    107.61565    528.90194 
   42700     480.1523   0.26070291    7.1206123   0.10027026         0.01    4.3082894  0.010340322    107.47221    527.99264 
   42800    481.21219   0.25935693    7.1372154   0.10027026         0.01    4.1562036  0.011508687    106.85804    527.09039 
   42900     482.3275   0.26046829     7.152792   0.10027026         0.01    4.4429448  0.011012876    108.72368    526.16661 
   43000    483.45718   0.26068284    7.1692644   0.10027026         0.01    3.8629306  0.010314515    107.23664    525.25975 
   43100    484.53383   0.25997664    7.1858556   0.10027026         0.01    3.8827443  0.010607562    107.61969     524.3484 
   43200    485.60877    0.2608456    7.2011099   0.10027026         0.01    4.0046514  0.010745107    109.38741    523.41721 
   43300    486.65064   0.26041482    7.2167632   0.10027026         0.01    3.6427385  0.010368258    108.05575    522.50086 
   43400     487.7577    0.2603978    7.2349757   0.10027026         0.01    4.2879345  0.010853463    108.01098    521.58497 
   43500    488.85121   0.26070544    7.2510527   0.10027026         0.01    3.4803828  0.011866784    109.29378    520.65492 
   43600    489.95479   0.26016445    7.2669298   0.10027026         0.01    4.0912083  0.010196845     107.1685     519.7484 
   43700    490.97541   0.26039355    7.2817684   0.10027026         0.01    4.2813901  0.010001021    111.12234      518.799 
   43800    492.01593   0.26068082    7.2967438   0.10027026         0.01    4.0418185  0.011293063    106.58719    517.89895 
   43900    493.06422   0.25866077    7.3127809   0.10027026         0.01    4.0074725  0.010572891    110.08828    516.96059 
   44000    494.09742   0.25988207     7.327865   0.10027026         0.01    3.6192594  0.010076292    106.19308    516.06478 
   44100    495.10951   0.26035571    7.3420981   0.10027026         0.01    4.1311695 0.0096277293    108.80268    515.14013 
   44200    496.07027   0.26125127    7.3562332   0.10027026         0.01    4.1817095 0.0097497088    109.61486    514.20691 
   44300      497.048   0.25963185    7.3710701   0.10027026         0.01    4.2670174 0.0096109448    109.27661    513.27734 
   44400    498.03565   0.26045879    7.3848507   0.10027026         0.01    3.9922787  0.010027477     107.4266    512.36756 
   44500    499.05125   0.25908588    7.3978577   0.10027026         0.01    4.1165434  0.010338909    107.40886    511.45788 
   44600    500.09059   0.25899672    7.4124993   0.10027026         0.01    3.7916897   0.01038808      107.681    510.54518 
   44700    501.17609    0.2592316    7.4274476   0.10027026         0.01    3.6545642  0.010567662    108.47634    509.62399 
   44800    502.30694    0.2590213    7.4440071   0.10027026         0.01    4.0709039   0.01159479    108.48198    508.70274 
   44900    503.38204   0.25912975    7.4588216   0.10027026         0.01    4.3853093 0.0092921178    106.49163    507.80262 
   45000    504.30774   0.25926346    7.4719808   0.10027026         0.01    4.3603348   0.00891974     108.2196    506.88401 
   45100    505.40565   0.25938265    7.4875795   0.10027026         0.01    4.3528671  0.011129952    108.53861    505.96206 
   45200    506.50727   0.25932318    7.5030142   0.10027026         0.01    3.8910579  0.011680322    107.58311    505.05004 
   45300     507.6454   0.25925624    7.5193859   0.10027026         0.01    4.2712377  0.011098028    107.63938    504.13736 
   45400    508.74535   0.26128595     7.534525   0.10027026         0.01    3.6573953  0.011933771    108.85017    503.21218 
   45500    509.87221   0.25893266    7.5489141   0.10027026         0.01    3.9016624  0.011298567    107.26761    502.30326 
   45600    510.97121   0.26002833    7.5636509   0.10027026         0.01    3.6223607  0.011013455    108.00698    501.38662 
   45700    512.05116   0.25915651    7.5784834   0.10027026         0.01    4.7141174  0.009754676    107.38361    500.47633 
   45800    513.12064   0.25901111     7.593045   0.10027026         0.01    4.1514743  0.011030986    109.14146     499.5482 
   45900    514.22785    0.2602764    7.6084122   0.10027026         0.01    3.5893281  0.011777362    108.52425    498.62626 
   46000    515.36078   0.25979263    7.6256951   0.10027026         0.01    3.6257922  0.011309897    108.60971    497.70347 
   46100    516.48155   0.25990373    7.6420773   0.10027026         0.01    3.8367771  0.011461381    106.94182    496.79748 
   46200    517.57001   0.25904592    7.6586157   0.10027026         0.01    3.7754107   0.01030214    109.05825    495.87024 
   46300    518.59059   0.25987845    7.6724233   0.10027026         0.01    4.5722798 0.0093024931    108.00536     494.9534 
   46400    519.54993   0.25918337    7.6860409   0.10027026         0.01    4.0526765  0.010463446    107.45431    494.04201 
   46500    520.60801   0.25854467    7.6999164   0.10027026         0.01    3.9207034  0.010068429     107.6766    493.12833 
   46600    521.59771    0.2586985    7.7124892   0.10027026         0.01     3.944179  0.010012618    109.84751    492.19355 
   46700    522.61868    0.2595909    7.7264857   0.10027026         0.01    3.7421193  0.010976782    109.18603    491.26517 
   46800    523.69758   0.25910818    7.7407373   0.10027026         0.01    3.7253374  0.011607608    111.78592    490.31263 
   46900     524.7995    0.2595437    7.7566706   0.10027026         0.01    4.3693502  0.010964845    106.52122     489.4104 
   47000    525.89285   0.26001235    7.7719834   0.10027026         0.01    4.0174769  0.010788253    108.75063    488.48631 
   47100    526.96746   0.25883221    7.7873968   0.10027026         0.01    3.9138162  0.011214697    108.35234    487.56603 
   47200    528.07318   0.26106806    7.8030346   0.10027026         0.01    4.0676919  0.010407157    108.37981    486.64548 
   47300     529.1388    0.2603217    7.8189813   0.10027026         0.01    3.8455022  0.010802924    108.68621    485.72203 
   47400    530.22803   0.26057358    7.8331002   0.10027026         0.01    3.6152434  0.010847389    108.33496    484.80189 
   47500    531.25878   0.25962822    7.8473231   0.10027026         0.01     3.954749  0.010181479    107.50965    483.88958 
   47600    532.28127   0.25980603    7.8606738   0.10027026         0.01    3.6105299 0.0097547217    107.89151    482.97357 
   47700    533.34354   0.25961748    7.8749162   0.10027026         0.01    3.5983882  0.011021612    109.00063    482.04717 
   47800     534.4174   0.25956758    7.8903904   0.10027026         0.01     3.749945  0.009988045    106.85986    481.14088 
   47900    535.50417   0.25983478    7.9058693   0.10027026         0.01    3.9316616  0.011417724    108.84153    480.21594 
   48000    536.59548    0.2587686    7.9220818   0.10027026         0.01    4.2108566  0.011182255    109.37378    479.28618 
   48100    537.67585   0.25941981     7.936458   0.10027026         0.01    3.8207176  0.010656591    107.72032    478.37162 
   48200    538.73186   0.25939871    7.9514608   0.10027026         0.01    3.8891435  0.010352449    108.88999    477.44629 
   48300    539.78401   0.25938034    7.9662724   0.10027026         0.01    4.4653759 0.0097578104    109.18962     476.5183 
   48400    540.76161   0.26044123    7.9800596   0.10027026         0.01     3.641802 0.0098753214    107.59282    475.60484 
   48500    541.81855    0.2598573     7.996022   0.10027026         0.01    3.4849748  0.010488541    107.44394    474.69269 
   48600    542.86996   0.25980185     8.011649   0.10027026         0.01    3.9381168   0.01076737     107.9628    473.77572 
   48700    543.96606   0.25888435    8.0289733   0.10027026         0.01    3.9735357  0.010522152    108.91798    472.85017 
   48800    545.02287   0.26032783    8.0449258   0.10027026         0.01    4.3959011  0.010970353    108.72875    471.92632 
   48900     546.0677   0.25962411    8.0603532   0.10027026         0.01    4.4264562  0.010854114    108.24103    471.00681 
   49000    547.15604   0.26035608    8.0760215   0.10027026         0.01    4.2313415  0.011109147    106.76232    470.10061 
   49100    548.19054   0.25890452    8.0910753   0.10027026         0.01    4.7176936 0.0097157071    107.62966    469.18646 
   49200    549.19051   0.26048074    8.1056484   0.10027026         0.01    4.2099606  0.010029838    109.49976    468.25587 
   49300    550.19909   0.25893654    8.1213776   0.10027026         0.01     4.223452  0.010110157     109.7808    467.32294 
   49400     551.2221   0.25874031     8.135649   0.10027026         0.01    3.8592267   0.01048391    109.32882    466.39396 
   49500    552.29394   0.26002036    8.1506221   0.10027026         0.01    4.0427014  0.010929781    106.56618    465.48922 
   49600    553.37339   0.25934122    8.1669593   0.10027026         0.01    4.3485934  0.010539852    108.08368    464.57096 
   49700    554.45623   0.25871689    8.1832166   0.10027026         0.01    4.3480957  0.010680095    109.76469    463.63834 
   49800    555.53513   0.25917244    8.1984596   0.10027026         0.01     3.765876  0.010959775    107.97083    462.72106 
   49900    556.66119   0.25887946    8.2141848   0.10027026         0.01    3.6225314  0.011364131      108.133    461.80235 
   50000    557.80891   0.26076223    8.2307962   0.10027026         0.01    4.2774148 0.0098610756    106.95051    460.89384 
   50100    558.78907   0.26005245    8.2438142   0.10027026         0.01    4.0175007 0.0094634902    106.46668    459.98945 
   50200    559.82921   0.25956868    8.2588009   0.10027026         0.01     5.056138 0.0089280666     108.5326    459.06719 
   50300    560.86093   0.25951357      8.27314   0.10027026         0.01    4.4642825  0.010039942    108.30469    458.14685 
   50400     561.8453    0.2601037    8.2873126   0.10027026         0.01    4.9263287 0.0095328981    108.44706    457.22531 
   50500    562.82685   0.25978174    8.3009112   0.10027026         0.01    3.9745736  0.011155151     109.3648    456.29618 
   50600    563.92182   0.26123267    8.3167043   0.10027026         0.01     3.752276  0.010501801    107.94321    455.37886 
   50700    564.91709   0.26016014     8.330727   0.10027026         0.01    4.1361889 0.0099808981    107.41969     454.4659 
   50800    565.94936   0.26042513    8.3453809   0.10027026         0.01    3.7518044  0.010189201    106.94422    453.55687 
   50900    566.98632   0.26024292    8.3608734   0.10027026         0.01    4.5107341  0.009714197    110.54049     452.6184 
   51000    567.95868   0.25947432    8.3744752   0.10027026         0.01    4.8000415  0.010046687    107.43733    451.70516 
   51100    569.04966   0.25945618    8.3896086   0.10027026         0.01    4.1488103  0.011389327    110.39635    450.76799 
   51200    570.08618   0.25964234     8.404288   0.10027026         0.01    4.0054117 0.0097779699    106.62643    449.86146 
   51300    571.08302   0.25973202     8.420274   0.10027026         0.01    4.3904231 0.0098590503    109.85061    448.92867 
   51400    572.13894    0.2599447    8.4361569   0.10027026         0.01    3.7741007  0.010409717    110.45769    447.99125 
   51500    573.19977   0.25925194    8.4521701   0.10027026         0.01    3.9562344  0.010333785    108.90732    447.06608 
   51600    574.16417   0.25993196    8.4662578   0.10027026         0.01    4.0741105   0.01009394    106.83523    446.15765 
   51700    575.19906   0.25933549    8.4824683   0.10027026         0.01    4.0988735  0.010638557     108.6583    445.23444 
   51800    576.22516    0.2602262    8.4987359   0.10027026         0.01    3.9838526  0.010541542    106.68558    444.32707 
   51900    577.19523   0.26110731    8.5142914   0.10027026         0.01    4.2054615 0.0095976111    107.70986    443.41133 
   52000    578.15365     0.259958    8.5303153   0.10027026         0.01    4.0643014 0.0097361421    107.23412    442.49934 
   52100    579.14882   0.26099194    8.5466248   0.10027026         0.01    3.7619299 0.0097581372    108.08964    441.58049 
   52200    580.21986   0.25961812     8.563842   0.10027026         0.01    3.8220487  0.011574736    109.62039    440.64978 
   52300    581.36098   0.25849857    8.5815766   0.10027026         0.01    3.8620686  0.012026411    107.69457    439.73402 
   52400    582.50774   0.25975871     8.598584   0.10027026         0.01    4.0173791  0.011397608    108.35363    438.81308 
   52500    583.63238    0.2601895    8.6163861   0.10027026         0.01    4.0063207  0.010474169    106.94569    437.90313 
   52600    584.69516   0.25990752    8.6338243   0.10027026         0.01    3.9392329  0.010487191    108.41214    436.98168 
   52700    585.79912   0.25891849    8.6522387   0.10027026         0.01    4.0567278  0.011113696    107.24528    436.06924 
   52800    586.87418   0.26008927    8.6702697   0.10027026         0.01    4.2841771  0.011273225    110.05096    435.13547 
   52900    587.94707   0.26052731    8.6882328   0.10027026         0.01    3.8240765  0.010582293    107.54976    434.22061 
   53000    588.92406   0.26083007    8.7029303   0.10027026         0.01    3.9963238 0.0091525235    105.76616     433.3196 
[...]
   85300    927.07971   0.26066015    13.487185   0.10027026         0.01    4.5437268 0.0099843718    108.07062    135.68213 
   85400    928.10295   0.26144924    13.502264   0.10027026         0.01    4.4698836   0.01054997    108.65586    134.75867 
   85500    929.15047   0.26134143    13.517919   0.10027026         0.01    4.4010528  0.010643801    106.85128    133.83785 
   85600     930.2118   0.26035237    13.534887   0.10027026         0.01     4.102222  0.010661329    108.83336    132.91412 
   85700    931.22164   0.26031848    13.551113   0.10027026         0.01    4.2415014 0.0088009962    109.29751    131.98976 
   85800    932.22591   0.25901164    13.566887   0.10027026         0.01    4.2748313   0.01075983    109.32628    131.06538 
   85900    933.25655   0.25993758    13.583527   0.10027026         0.01    4.7699468  0.010423326    108.26013     130.1425 
   86000    934.35144   0.25995183    13.601245   0.10027026         0.01    4.1604454  0.011116799    106.28485    129.22241 
   86100    935.39613   0.25993121    13.618226   0.10027026         0.01    3.9466187  0.010162536    110.12574    128.29698 
   86200     936.4415   0.26008109    13.634684   0.10027026         0.01    3.7471264  0.011042174    109.92235    127.37185 
   86300    937.51702   0.26009526    13.651572   0.10027026         0.01    4.0991966  0.010516165    109.87055    126.44684 
   86400    938.57167   0.26054092    13.668302   0.10027026         0.01    4.2571051  0.010577923    108.33085    125.52389 
   86500     939.6066   0.26014142    13.684734   0.10027026         0.01    3.7783522  0.011294994    107.70292    124.60178 
   86600    940.72862   0.26047699    13.701676   0.10027026         0.01    3.7933747  0.010399894    106.61661    123.68112 
   86700    941.84521   0.26095074    13.720186   0.10027026         0.01     3.732278  0.011057644    109.78382    122.75626 
   86800    942.94211   0.26030282     13.73865   0.10027026         0.01    3.7567923  0.010858907    108.76648    121.83274 
   86900    944.03361   0.26107015    13.755792   0.10027026         0.01    3.9975133  0.010862541    107.83498    120.91042 
   87000    945.14413   0.25977248    13.774423   0.10027026         0.01    4.0553633  0.011050001      108.131    119.98772 
   87100    946.20991   0.25997668    13.792064   0.10027026         0.01    3.7506066  0.010272737    107.11962     119.0663 
   87200    947.21174   0.26008557    13.807202   0.10027026         0.01    3.9661585 0.0099584837    109.71191    118.14161 
   87300    948.19375   0.25936703    13.822205   0.10027026         0.01    3.7974787 0.0097578143    108.62068    117.21829 
   87400    949.20821   0.26009998     13.83766   0.10027026         0.01       3.7998  0.010308718    107.78673      116.296 
   87500    950.23594   0.25912042    13.852551   0.10027026         0.01    4.2775477 0.0096614214    110.19295     115.3708 
   87600    951.23546    0.2586621    13.866482   0.10027026         0.01    4.1629269 0.0096919183    110.53096    114.44525 
   87700    952.26698   0.25921749    13.880303   0.10027026         0.01    3.6903941  0.010757946    108.38944    113.52226 
   87800    953.33216   0.26026153    13.894623   0.10027026         0.01    3.9719429  0.010293451    109.39757    112.59808 
   87900    954.33232   0.25898218    13.908829   0.10027026         0.01    3.6945655  0.010020061    108.71232    111.67473 
   88000    955.36622   0.25986999    13.923177   0.10027026         0.01    3.9219138  0.010123998    107.65665    110.75261 
   88100    956.40219   0.26108639    13.937505   0.10027026         0.01    3.7314722  0.011027768    107.26679    109.83093 
   88200    957.47567   0.25976151    13.952901   0.10027026         0.01    3.9429139  0.010454638    108.38076    108.90794 
   88300    958.56027   0.25944617    13.968209   0.10027026         0.01    3.6305832  0.010664284    108.66177    107.98464 
   88400    959.65824   0.25963845    13.984459   0.10027026         0.01    4.3574939  0.010453416    108.93303    107.06104 
   88500    960.69982   0.25991615    13.999256   0.10027026         0.01     4.148019  0.010995365    108.62611     106.1378 
   88600    961.77294   0.26032604    14.014062   0.10027026         0.01    3.7863478  0.010319345    106.25491     105.2172 
   88700    962.81446   0.26096677    14.028521   0.10027026         0.01     4.475072  0.011068883     109.1714    104.29336 
   88800    963.90597   0.26090092     14.04422   0.10027026         0.01    4.3085604  0.011097742    103.77879    103.37553 
   88900    964.95079   0.26049548    14.059609   0.10027026         0.01    4.1582397  0.010934796    107.46657    102.45348 
   89000    966.06865   0.26156866    14.075452   0.10027026         0.01    4.3018202  0.010651952     107.1963    101.53169 
   89100    967.11404   0.26087545    14.089995   0.10027026         0.01    4.0740533  0.010314534    106.85951    100.61024 
   89200      968.184   0.26036265    14.104013   0.10027026         0.01    3.7593711  0.010469429    109.33372    99.686193 
   89300     969.2238   0.26098208    14.119929   0.10027026         0.01    3.5190725  0.010246303    107.98506    98.763536 
   89400    970.25949   0.25934743    14.135378   0.10027026         0.01    3.6033519  0.011171332    108.24421    97.840609 
   89500    971.33739   0.26024666    14.150667   0.10027026         0.01    3.8307979  0.010896251    108.06697    96.917858 
   89600    972.43425   0.26088801    14.166582   0.10027026         0.01    3.9971308  0.010557792    108.11185    95.995056 
   89700    973.55761   0.26056731    14.183478   0.10027026         0.01    3.9221844  0.011479755    109.98984    95.070435 
   89800    974.63597   0.26072123    14.198901   0.10027026         0.01     3.819108  0.010632645    109.04209    94.146747 
   89900    975.68281   0.26044163    14.214182   0.10027026         0.01    3.9530228   0.01058106    107.50631    93.224545 
   90000    976.73071   0.26017051    14.229568   0.10027026         0.01    3.9483306  0.010682875    109.83482    92.300135 
   90100    977.81031   0.26052801     14.24503   0.10027026         0.01     4.140872  0.010860148      108.998    91.376523 
   90200    978.85422   0.25984008    14.260817   0.10027026         0.01    4.0531239  0.010530163    107.63463    90.454188 
   90300    979.78504   0.26039234    14.274822   0.10027026         0.01    3.8094692  0.010186346    108.09574    89.531412 
   90400    980.81023   0.26053014    14.290271   0.10027026         0.01    4.2322756  0.010370976    108.27643    88.608467 
   90500    981.85933   0.25925069    14.305875   0.10027026         0.01    3.6110674  0.011148892    108.45668     87.68536 
   90600    982.94733   0.26042418    14.321165   0.10027026         0.01    3.7300501  0.011328432    109.65251    86.761211 
   90700    984.03701   0.26020789    14.336481   0.10027026         0.01    4.0694028  0.010186137    108.69128    85.837917 
   90800    985.05042   0.25861457    14.352036   0.10027026         0.01    3.7181756  0.010133853    109.31708    84.914096 
   90900    986.11257   0.25933022    14.367567   0.10027026         0.01    4.1396162  0.010705037    106.51603    83.992703 
   91000    987.19202   0.25919084    14.383713   0.10027026         0.01    3.9845879  0.011288464    107.30419     83.07059 
   91100    988.28872   0.26065579    14.398502   0.10027026         0.01    4.3424481  0.010413964    109.06908    82.146982 
   91200    989.40493   0.25948484    14.415885   0.10027026         0.01    4.2474197  0.010483925    110.33034    81.222377 
   91300    990.51023    0.2594217    14.432642   0.10027026         0.01    4.3207361  0.011045034    110.41489    80.297746 
   91400    991.59273   0.25825523    14.448332   0.10027026         0.01    4.1464039  0.010881882    109.27288    79.374048 
   91500    992.70623   0.25915882    14.464433   0.10027026         0.01    4.2236651  0.010851751    107.25496    78.451967 
   91600    993.77618    0.2595395    14.479779   0.10027026         0.01    4.5095691  0.010959096    107.93516    77.529325 
   91700    994.87467    0.2608222    14.495651   0.10027026         0.01    4.0002521  0.010803114     109.6585    76.605358 
   91800    995.91702   0.26032081    14.510816   0.10027026         0.01    4.1203081   0.01067009    109.35884    75.681639 
   91900    997.06042   0.25925515    14.527698   0.10027026         0.01    3.9268101  0.010454136     108.0225    74.758938 
   92000    998.15892   0.25917051    14.542946   0.10027026         0.01    3.3831265  0.010772873    109.37389    73.835235 
   92100     999.2147   0.25913822     14.55812   0.10027026         0.01    4.0677732  0.010235655    105.47699    72.914451 
   92200    1000.2156   0.25851272    14.574194   0.10027026         0.01    4.2353053  0.010449216    108.38465    71.991455 
   92300    1001.2932   0.25962294    14.591007   0.10027026         0.01    3.8788376  0.010758331    107.22549    71.069293 
   92400    1002.3616   0.25906169    14.607462   0.10027026         0.01    3.9805082 0.0097274664    108.21503    70.146406 
   92500    1003.3985   0.26034711    14.624198   0.10027026         0.01    4.4300198  0.010214957    108.08931    69.223604 
   92600    1004.4321   0.26008709    14.639523   0.10027026         0.01    4.4701756  0.010941046    109.38562     68.29992 
   92700    1005.5116   0.25968727    14.656548   0.10027026         0.01    4.1853769  0.010873219    108.64429    67.376749 
   92800    1006.6218   0.25935831    14.673044   0.10027026         0.01    3.9224711  0.011295785    108.34868    66.453778 
   92900    1007.7337    0.2590989    14.689241   0.10027026         0.01    3.9563557  0.010956236    108.30858    65.530833 
   93000    1008.8502   0.25968498    14.706361   0.10027026         0.01    4.0706682  0.010834486    107.93402    64.608129 
   93100    1009.9329   0.25989098    14.722995   0.10027026         0.01    3.8960775  0.011461567    108.50752    63.685053 
   93200    1011.0487   0.25892118    14.739682   0.10027026         0.01    3.8533018  0.011955673     110.0449    62.761042 
   93300    1012.2017    0.2604592    14.756734   0.10027026         0.01    3.7227194  0.011818376    109.45256    61.837416 
   93400    1013.3824   0.25932938    14.773294   0.10027026         0.01    3.9349415  0.011951534    110.18603    60.913382 
   93500     1014.476   0.25955303    14.788012   0.10027026         0.01    4.1744638  0.011327206    109.27291     59.98991 
   93600    1015.5588   0.26064648    14.804295   0.10027026         0.01    4.0949139  0.010840354    109.14396    59.066531 
   93700    1016.5942    0.2594989    14.818762   0.10027026         0.01    4.0878991  0.010844936    109.54595     58.14294 
   93800    1017.6853   0.25991642    14.833116   0.10027026         0.01    4.2550788  0.011308842    109.19593    57.219566 
   93900     1018.764   0.26034053    14.848011   0.10027026         0.01    4.0870403  0.010660825    109.01774    56.296305 
   94000    1019.8611   0.26018125    14.864501   0.10027026         0.01    4.3373992  0.011470225    108.91869     55.37311 
   94100    1020.9357   0.25890635     14.88154   0.10027026         0.01     4.281407  0.010750091    106.25571    54.451368 
   94200    1022.0187   0.25992819    14.897755   0.10027026         0.01    4.1364702  0.011465867    108.38426    53.528448 
   94300    1023.0967   0.25993317    14.913337   0.10027026         0.01    4.2643903  0.010300655    106.72896    52.606392 
   94400    1024.1663   0.25964742    14.928737   0.10027026         0.01    4.2395726  0.011317105    110.07106    51.682618 
   94500    1025.3082   0.25941837    14.945288   0.10027026         0.01    3.8675728  0.011313161    111.18226    50.758348 
   94600    1026.4321   0.25978688    14.961549   0.10027026         0.01    3.9097302  0.012129559    108.45306    49.835422 
   94700    1027.5957   0.25913493    14.978645   0.10027026         0.01    3.7944162  0.011098876    109.07135    48.912205 
   94800    1028.6885   0.25849686    14.994313   0.10027026         0.01    3.8786904   0.01133785    108.43691    47.989296 
   94900    1029.8362   0.25933059    15.011845   0.10027026         0.01    4.4566954  0.011111179    110.38052    47.065516 
   95000    1030.9456   0.26046672    15.028871   0.10027026         0.01    3.8964396   0.01108133    107.87836     46.14288 
   95100    1032.0299   0.26087725     15.04611   0.10027026         0.01    3.8428713 0.0099602697    106.38243    45.220906 
   95200    1033.0422   0.26056496    15.061594   0.10027026         0.01    4.1298166  0.010333773    110.33397    44.297196 
   95300    1034.1116   0.26036714    15.076469   0.10027026         0.01    4.1151806   0.01159312    110.61299     43.37341 
   95400    1035.1992   0.25971209    15.092331   0.10027026         0.01    4.2298563  0.010915462    108.17009    42.450651 
   95500    1036.2838   0.25896743    15.108772   0.10027026         0.01    4.2385432  0.010985026    109.28962    41.527441 
   95600    1037.2886   0.25986187    15.123274   0.10027026         0.01    4.2631702  0.010363571    108.05648    40.604729 
   95700    1038.2746   0.26041168    15.137198   0.10027026         0.01    4.2091635 0.0092397545      106.619    39.682572 
   95800    1039.3399   0.26003649     15.15193   0.10027026         0.01    4.0349699  0.010944183    109.07612    38.759456 
   95900    1040.3954   0.26015623    15.166745   0.10027026         0.01     3.933523  0.010982575    111.31941    37.835563 
   96000    1041.5105   0.25979081    15.182741   0.10027026         0.01    3.9569064   0.01084079    107.39568    36.913091 
   96100    1042.5854   0.25966977    15.197232   0.10027026         0.01    4.2083183  0.010836659    106.96538    35.990753 
   96200    1043.6558   0.25894767    15.211952   0.10027026         0.01    4.3101125  0.011423548    106.59242    35.068518 
   96300     1044.737   0.25916062    15.226922   0.10027026         0.01    4.3103551  0.011030437    108.45211    34.145632 
   96400    1045.8211   0.25866484      15.2428   0.10027026         0.01    3.9572413  0.010962841    107.83647    33.222944 
   96500    1046.8822   0.26076601     15.25932   0.10027026         0.01    4.4286034  0.010601068    109.74383    32.299662 
   96600    1047.9807   0.26060574    15.276312   0.10027026         0.01    3.5784984  0.010631861    108.88891    31.376657 
   96700    1049.0345   0.25982596     15.29164   0.10027026         0.01    3.8662636 0.0095735893      109.295    30.453545 
   96800    1050.1186   0.25981842    15.307097   0.10027026         0.01    4.5408495  0.010566583    110.48272    29.530125 
   96900    1051.1661   0.25956707    15.322232   0.10027026         0.01    3.5257829  0.011519369    107.37066    28.607581 
   97000    1052.2684     0.259549    15.338762   0.10027026         0.01     3.737406  0.011414778    108.92997    27.684607 
   97100    1053.3588   0.26042319     15.35463   0.10027026         0.01    4.2373628  0.011451726    107.80219    26.761931 
   97200    1054.4685   0.26018124     15.37065   0.10027026         0.01    4.0521949  0.011233555    109.36839    25.838861 
   97300    1055.5078    0.2590203    15.385884   0.10027026         0.01    4.2000791  0.010917021    109.41612    24.915798 
   97400    1056.5476   0.25973526    15.401389   0.10027026         0.01    4.9095634  0.010027368    109.14992    23.992814 
   97500     1057.574   0.26007003    15.416714   0.10027026         0.01    4.7953736  0.010137723    110.80494    23.069492 
   97600    1058.5819   0.25880378    15.431055   0.10027026         0.01    4.2114461  0.010178687    108.54981    22.146675 
   97700    1059.6508   0.25862779    15.445487   0.10027026         0.01    3.5461818  0.010270767      110.677    21.223444 
   97800    1060.7237   0.25908762    15.459864   0.10027026         0.01    3.5689823  0.011237729    109.61102     20.30045 
   97900    1061.8137    0.2596387    15.474989   0.10027026         0.01    3.5703285  0.011055016    109.52281    19.377495 
   98000    1062.8869    0.2600437    15.489941   0.10027026         0.01    3.8802856  0.010385166    105.55649    18.455259 
   98100    1063.9568   0.25921294    15.505197   0.10027026         0.01    4.6212702  0.010529874    108.67804    17.532446 
   98200    1065.0622   0.26109451    15.520505   0.10027026         0.01    4.2943434  0.011444072    108.47329    16.609669 
   98300     1066.151    0.2602237    15.536643   0.10027026         0.01    3.7455462  0.011061014    107.56239     15.68703 
   98400    1067.2263   0.26044863    15.552222   0.10027026         0.01    4.2569397  0.010333977     110.9729    14.763911 
   98500    1068.2995    0.2593562     15.56742   0.10027026         0.01    3.6652779   0.01121897    107.25551    13.841313 
   98600    1069.4093   0.25967017    15.582173   0.10027026         0.01    3.8491007  0.010366028    107.91921    12.918614 
   98700    1070.5268   0.25933171    15.598422   0.10027026         0.01    4.0067759  0.010898924    107.51855    11.995952 
   98800    1071.6107   0.26021561    15.613047   0.10027026         0.01    3.3709922  0.011164192    109.54872    11.073066 
   98900    1072.6527   0.25959012    15.627012   0.10027026         0.01    3.8483951  0.010694253    109.07121    10.150245 
   99000    1073.7081   0.25913298    15.642875   0.10027026         0.01     3.919729  0.010560611    108.73278    9.2274641 
   99100    1074.7488   0.26007399    15.656544   0.10027026         0.01    3.6414366  0.010809427    108.15453    8.3047346 
   99200    1075.8303   0.25935212    15.669313   0.10027026         0.01    3.8373304  0.011162739    108.28722    7.3819921 
   99300    1076.9173   0.25847438    15.683985   0.10027026         0.01    3.6326091  0.011414149     98.44312    6.4598992 
   99400     1078.041    0.2601773    15.698574   0.10027026         0.01    4.0018318  0.011097557    106.95002    5.5371299 
   99500     1079.142   0.25979704    15.713351   0.10027026         0.01    3.5827412  0.010877551    108.89878     4.614252 
   99600    1080.2556   0.25900428    15.727472   0.10027026         0.01    3.9641298  0.010980398    108.90992    3.6913828 
   99700    1081.3723   0.26041175    15.742922   0.10027026         0.01    3.4801863  0.011268073    109.38633    2.7685111 
   99800    1082.4407   0.26018199    15.757176   0.10027026         0.01    4.4058842  0.010622823    108.61196    1.8456698 
   99900    1083.4853   0.25998112     15.77065   0.10027026         0.01    4.3152118  0.010725526    107.87905   0.92283903 
  100000    1084.5494   0.26039539    15.785083   0.10027026         0.01    3.9814591  0.011538682    105.37187            0 
Loop time of 922.865 on 4 procs for 100000 steps with 178537 atoms

Performance: 108026.841 tau/day, 108.358 timesteps/s
242.0% CPU use with 1 MPI tasks x 4 OpenMP threads

MPI task timing breakdown:
Section |  min time  |  avg time  |  max time  |%varavg| %total
---------------------------------------------------------------
Pair    | 349.62     | 349.62     | 349.62     |   0.0 | 37.88
Neigh   | 13.254     | 13.254     | 13.254     |   0.0 |  1.44
Comm    | 117.48     | 117.48     | 117.48     |   0.0 | 12.73
Output  | 3.0705     | 3.0705     | 3.0705     |   0.0 |  0.33
Modify  | 370.05     | 370.05     | 370.05     |   0.0 | 40.10
Other   |            | 69.39      |            |       |  7.52

Nlocal:    178537 ave 178537 max 178537 min
Histogram: 1 0 0 0 0 0 0 0 0 0
Nghost:    66904 ave 66904 max 66904 min
Histogram: 1 0 0 0 0 0 0 0 0 0
Neighs:    0 ave 0 max 0 min
Histogram: 1 0 0 0 0 0 0 0 0 0

Total # of neighbors = 0
Ave neighs/atom = 0
Neighbor list builds = 28844
Dangerous builds = 0

Please see the log.cite file for references relevant to this simulation

Total wall time: 0:16:00
