#package gpu 1
#suffix gpu
# variable rho equal 0.03

units lj
atom_style atomic

lattice fcc 0.975
Lattice spacing in x,y,z = 1.60085 1.60085 1.60085
region box block 0 60 0 30 0 30
create_box 2 box
Created orthogonal box = (0 0 0) to (96.0513 48.0256 48.0256)
  1 by 1 by 1 MPI processor grid
create_atoms 1 box
Created 216000 atoms
  Time spent = 0.040354 secs
mass 1 4.0
mass 2 0.5


pair_style lj/cut 2.5
pair_coeff 1 1 1.0 1.0 2.5
pair_coeff 2 2 0.5 0.88 2.5
pair_coeff 1 2 0.2 1.0 2.5
#pair_coeff 1 2 1.5 0.8 2.5
pair_modify mix geometric
neigh_modify every 1 delay 0 check yes

variable R equal 12
region cylinder1 cylinder x $(0.5*ly) $(0.5*lz) $R EDGE EDGE units box
region cylinder1 cylinder x 24.012813670346833561 $(0.5*lz) $R EDGE EDGE units box
region cylinder1 cylinder x 24.012813670346833561 24.012813670346833561 $R EDGE EDGE units box
region cylinder1 cylinder x 24.012813670346833561 24.012813670346833561 12 EDGE EDGE units box

group cylinder1 region cylinder1
41820 atoms in group cylinder1
variable V equal PI*v_R*v_R*lx
# variable rho equal 0.1
variable natoms equal $V*${rho}
variable natoms equal 43452.5639148185*${rho}
variable natoms equal 43452.5639148185*0.02
variable natoms_in_cylinder equal count(cylinder1)
variable delete_fraction equal (${natoms_in_cylinder}-${natoms})/${natoms_in_cylinder}
variable delete_fraction equal (41820-${natoms})/${natoms_in_cylinder}
variable delete_fraction equal (41820-869.05127829637)/${natoms_in_cylinder}
variable delete_fraction equal (41820-869.05127829637)/41820
set group cylinder1 type 2
  41820 settings made for type
delete_atoms porosity cylinder1 ${delete_fraction} 12345
delete_atoms porosity cylinder1 0.979219242508456 12345
Deleted 40996 atoms, new total = 175004
#delete_atoms region cylinder1

region cylinder2 cylinder x $(0.5*ly) $(0.5*lz) $(v_R+6) EDGE EDGE units box
region cylinder2 cylinder x 24.012813670346833561 $(0.5*lz) $(v_R+6) EDGE EDGE units box
region cylinder2 cylinder x 24.012813670346833561 24.012813670346833561 $(v_R+6) EDGE EDGE units box
region cylinder2 cylinder x 24.012813670346833561 24.012813670346833561 18 EDGE EDGE units box
region cylinder3 cylinder x $(0.5*ly) $(0.5*lz) $(v_R+11) EDGE EDGE units box
region cylinder3 cylinder x 24.012813670346833561 $(0.5*lz) $(v_R+11) EDGE EDGE units box
region cylinder3 cylinder x 24.012813670346833561 24.012813670346833561 $(v_R+11) EDGE EDGE units box
region cylinder3 cylinder x 24.012813670346833561 24.012813670346833561 23 EDGE EDGE units box
group cylinder2 region cylinder2
54824 atoms in group cylinder2
group cylinder3 region cylinder3
114584 atoms in group cylinder3

group nve region cylinder3
114584 atoms in group nve
group langevin subtract cylinder3 cylinder2
59760 atoms in group langevin
group frozen subtract all cylinder3
60420 atoms in group frozen

region force cylinder x $(0.5*ly) $(0.5*lz) $(v_R-1) EDGE EDGE units box
region force cylinder x 24.012813670346833561 $(0.5*lz) $(v_R-1) EDGE EDGE units box
region force cylinder x 24.012813670346833561 24.012813670346833561 $(v_R-1) EDGE EDGE units box
region force cylinder x 24.012813670346833561 24.012813670346833561 11 EDGE EDGE units box
group inner dynamic all region cylinder1 every 1
dynamic group inner defined
#group gas dynamic all region force every 1
group gas type 2
824 atoms in group gas

fix nve nve nve
fix langevin langevin langevin 0.50 0.50 1.0 12345 zero yes

variable gascount equal count(gas)

variable dP equal 0.001
variable measured_rho equal mass(gas)/(PI*(v_R-1)*(v_R-1)*lx)
variable force equal v_dP/v_measured_rho
variable force equal v_dP/v_rho

velocity all create 0.1 87287
velocity frozen set 0 0 0

compute chunk all chunk/atom bin/cylinder x lower $(lx) $(0.5*ly) $(0.5*lz) 0 $(v_R+5) 30 units box
compute chunk all chunk/atom bin/cylinder x lower 96.051254681387334244 $(0.5*ly) $(0.5*lz) 0 $(v_R+5) 30 units box
compute chunk all chunk/atom bin/cylinder x lower 96.051254681387334244 24.012813670346833561 $(0.5*lz) 0 $(v_R+5) 30 units box
compute chunk all chunk/atom bin/cylinder x lower 96.051254681387334244 24.012813670346833561 24.012813670346833561 0 $(v_R+5) 30 units box
compute chunk all chunk/atom bin/cylinder x lower 96.051254681387334244 24.012813670346833561 24.012813670346833561 0 17 30 units box

compute displacement nve displace/atom
compute mean_displacement nve reduce ave c_displacement[4]

compute vmax all reduce max vx
variable volume equal count(gas)/v_V

thermo_style custom step time temp c_mean_displacement v_volume v_force c_vmax dt spcpu cpuremain
thermo 100

compute keAtom all ke/atom
dump dump all custom 1000 trajectory_l.bin id type x y z c_keAtom

fix flow gas addforce v_force 0.0 0.0
run 5000
No /omp style for force computation currently active
Per MPI rank memory allocation (min/avg/max) = 85.74 | 85.74 | 85.74 Mbytes
Step Time Temp c_mean_displacement v_volume v_force c_vmax Dt S/CPU CPULeft 
       0            0  0.065545144            0  0.018963208         0.05   0.77453518        0.005            0            0 
     100          0.5  0.098202797  0.058760057  0.018963208         0.05     1.504224        0.005    117.91521    41.555285 
     200            1   0.14541866  0.089887041  0.018963208         0.05    1.4463158        0.005    114.37631    41.336998 
     300          1.5   0.16971678    0.1226583  0.018963208         0.05    1.9260641        0.005    117.46892    40.320735 
     400            2   0.18731423   0.14866587  0.018963208         0.05    2.1636901        0.005    117.95818    39.346353 
     500          2.5   0.19918116   0.16840829  0.018963208         0.05    1.8884782        0.005    118.21254    38.406203 
     600            3   0.20728445   0.18111071  0.018963208         0.05    1.8029301        0.005    118.68563    37.472731 
     700          3.5   0.21289556   0.18530649  0.018963208         0.05    1.9141425        0.005    118.45813    36.575167 
     800            4   0.21796348   0.18130988  0.018963208         0.05    2.0152989        0.005     117.9543    35.709891 
     900          4.5   0.22551812   0.17127809  0.018963208         0.05    1.9926285        0.005    117.57692    34.860888 
    1000            5   0.23061885   0.15808726  0.018963208         0.05    2.2564296        0.005    115.49825     34.07282 
    1100          5.5   0.23586419   0.14460177  0.018963208         0.05     2.017216        0.005    115.27351    33.276597 
    1200            6   0.23970292    0.1338813  0.018963208         0.05    1.8696817        0.005    117.52385    32.415894 
    1300          6.5   0.24179671   0.12688117  0.018963208         0.05    2.1561397        0.005    116.40048    31.580072 
    1400            7   0.24470077   0.12523638  0.018963208         0.05    2.4793146        0.005    116.81658    30.733056 
    1500          7.5   0.24913806   0.12714553  0.018963208         0.05    2.1492041        0.005    117.20828     29.87816 
    1600            8   0.25217322   0.13059342  0.018963208         0.05    2.1789304        0.005    117.06176    29.025749 
    1700          8.5   0.25628801     0.134279  0.018963208         0.05    2.4646584        0.005    116.14469    28.186212 
    1800            9   0.26085733   0.13799015  0.018963208         0.05    2.4557391        0.005    115.04078    27.358981 
    1900          9.5   0.26481557   0.14061682  0.018963208         0.05    2.4585005        0.005     116.2485    26.512593 
    2000           10   0.26800843   0.14317479  0.018963208         0.05    2.5085005        0.005    114.07063    25.689456 
    2100         10.5   0.27171393   0.14572417  0.018963208         0.05     2.630022        0.005    114.92547    24.852217 
    2200           11   0.27504197    0.1491475  0.018963208         0.05    2.7389588        0.005    116.83731    23.993867 
    2300         11.5   0.27658192   0.15457976  0.018963208         0.05    2.7348268        0.005    116.58435    23.137911 
    2400           12   0.27997027    0.1604223  0.018963208         0.05     2.712101        0.005    114.76431    22.296542 
    2500         12.5   0.28096084   0.16674407  0.018963208         0.05    2.8258724        0.005    117.11209    21.435306 
    2600           13   0.28383936   0.17247925  0.018963208         0.05     2.813748        0.005     115.1328    20.588186 
    2700         13.5   0.28510524   0.17723973  0.018963208         0.05    2.9965505        0.005    116.05358    19.733607 
    2800           14   0.28618602   0.18060791  0.018963208         0.05    3.1591631        0.005    116.27515    18.877232 
    2900         14.5   0.28700299   0.18270537  0.018963208         0.05    2.8373081        0.005    115.14927    18.026694 
    3000           15   0.28907802   0.18360972  0.018963208         0.05      3.27969        0.005    114.21731    17.179687 
    3100         15.5   0.29162256   0.18447265  0.018963208         0.05     2.997404        0.005    114.97887    16.327285 
    3200           16   0.29252316   0.18556835  0.018963208         0.05    3.4779813        0.005    114.12805    15.477448 
    3300         16.5    0.2935532   0.18635108  0.018963208         0.05    3.8234497        0.005    115.23431     14.62168 
    3400           17   0.29496053   0.18753201  0.018963208         0.05    3.0212536        0.005    114.55068    13.767641 
    3500         17.5   0.29614166   0.19009479  0.018963208         0.05    3.2466185        0.005    115.14636    12.910584 
    3600           18   0.29796039   0.19266797  0.018963208         0.05     3.533806        0.005    113.80606    12.056872 
    3700         18.5   0.29789467   0.19603983  0.018963208         0.05    3.4915477        0.005    113.97906    11.201341 
    3800           19   0.29938356   0.19998669  0.018963208         0.05    3.6275087        0.005    112.97213     10.34713 
    3900         19.5   0.30098895   0.20433554  0.018963208         0.05    3.6064548        0.005    114.54886    9.4878957 
    4000           20   0.30218237   0.20855291  0.018963208         0.05    3.5964668        0.005    113.59068    8.6298143 
    4100         20.5   0.30368833   0.21265943  0.018963208         0.05     3.532455        0.005    114.17375    7.7696592 
    4200           21   0.30400116   0.21739371  0.018963208         0.05    4.2385866        0.005    113.30123    6.9100413 
    4300         21.5     0.304638   0.22202952  0.018963208         0.05    3.6518002        0.005    114.73587     6.047558 
    4400           22   0.30685764   0.22692816  0.018963208         0.05    3.5359436        0.005    113.18169    5.1862936 
    4500         22.5     0.308661   0.23185934  0.018963208         0.05    3.5815924        0.005    113.93271    4.3233922 
    4600           23   0.30779073   0.23748624  0.018963208         0.05    4.0229717        0.005    114.51265    3.4594606 
    4700         23.5    0.3094227   0.24202363  0.018963208         0.05    3.9571987        0.005    113.87694    2.5954428 
    4800           24   0.30963677    0.2468684  0.018963208         0.05    3.9316059        0.005    114.26233    1.7307132 
    4900         24.5   0.31052244   0.25175465  0.018963208         0.05    3.7609211        0.005    114.34532    0.8655441 
    5000           25   0.31234297   0.25621066  0.018963208         0.05    3.7675241        0.005    112.24275            0 
Loop time of 43.3026 on 4 procs for 5000 steps with 175004 atoms

Performance: 49881.530 tau/day, 115.467 timesteps/s
238.8% CPU use with 1 MPI tasks x 4 OpenMP threads

MPI task timing breakdown:
Section |  min time  |  avg time  |  max time  |%varavg| %total
---------------------------------------------------------------
Pair    | 14.899     | 14.899     | 14.899     |   0.0 | 34.41
Neigh   | 0.21151    | 0.21151    | 0.21151    |   0.0 |  0.49
Comm    | 3.5504     | 3.5504     | 3.5504     |   0.0 |  8.20
Output  | 0.13709    | 0.13709    | 0.13709    |   0.0 |  0.32
Modify  | 21.77      | 21.77      | 21.77      |   0.0 | 50.27
Other   |            | 2.735      |            |       |  6.32

Nlocal:    175004 ave 175004 max 175004 min
Histogram: 1 0 0 0 0 0 0 0 0 0
Nghost:    66654 ave 66654 max 66654 min
Histogram: 1 0 0 0 0 0 0 0 0 0
Neighs:    0 ave 0 max 0 min
Histogram: 1 0 0 0 0 0 0 0 0 0

Total # of neighbors = 0
Ave neighs/atom = 0
Neighbor list builds = 503
Dangerous builds = 0

reset_timestep 0
fix vx all ave/chunk 10 100000 1000000 chunk vx ave running file velocity_l.txt

fix dt all dt/reset 10 NULL NULL 0.05 units box

run 1000000
No /omp style for force computation currently active
Per MPI rank memory allocation (min/avg/max) = 95.11 | 95.11 | 95.11 Mbytes
Step Time Temp c_mean_displacement v_volume v_force c_vmax Dt S/CPU CPULeft 
       0           25   0.31234297   0.25621066  0.018963208         0.05    3.7675241  0.012267276            0            0 
     100    26.200414   0.31263054   0.26561963  0.018963208         0.05    3.8807799  0.011638059    95.476073    10472.781 
     200    27.347929   0.31220047   0.27454325  0.018963208         0.05    4.1316837  0.010986174    95.608766    10464.472 
     300    28.380516   0.31491989   0.28274469  0.018963208         0.05    3.9988498 0.0099090986    96.778171    10418.886 
     400    29.374361   0.31553217   0.29144244  0.018963208         0.05    4.1144167  0.010050739    98.755963    10343.863 
     500    30.380179   0.31724036   0.30088825  0.018963208         0.05    4.2078244  0.010074266    97.205059     10330.74 
     600    31.358042   0.31785948   0.31043786  0.018963208         0.05    4.2627272 0.0096101461    98.243711    10303.532 
     700    32.305801   0.32015152   0.31989626  0.018963208         0.05    4.3467208 0.0094844816    96.571144    10308.973 
     800     33.24895   0.32052565   0.32925734  0.018963208         0.05     4.434663 0.0093597946    95.621125    10325.646 
     900    34.175819   0.32094755   0.33771858  0.018963208         0.05    4.6716133 0.0092727272    97.441657    10316.691 
    1000     35.09889   0.32208248   0.34494614  0.018963208         0.05    4.6353585  0.009114095    94.543709    10340.747 
    1100    36.052352   0.32080478   0.35407545  0.018963208         0.05    4.7305362 0.0099040685    97.377227    10332.287 
    1200    37.034435   0.32184041   0.36318731  0.018963208         0.05    4.9387645 0.0095950676    97.961228    10319.971 
    1300    38.001246    0.3222044   0.37249644  0.018963208         0.05    5.0241932 0.0090612084    98.068834    10308.531 
    1400    38.913089   0.32307475   0.38176476  0.018963208         0.05    5.1164641  0.009155805    97.374786    10303.766 
    1500    39.828616    0.3243131   0.39042747  0.018963208         0.05    5.2221557 0.0090860911    97.127918    10301.236 
    1600    40.724857   0.32420646   0.39837216  0.018963208         0.05    5.4898063 0.0088491937    95.991863    10306.496 
    1700    41.674694   0.32435002   0.40732339  0.018963208         0.05    4.9988428 0.0092247116    97.388623    10302.242 
    1800    42.586829   0.32623588   0.41626227  0.018963208         0.05    5.1287749 0.0090218284     94.97857    10312.794 
    1900    43.468918   0.32703432   0.42460973  0.018963208         0.05    5.6681075 0.0087558296    96.684408    10312.367 
    2000    44.341528    0.3251847   0.43254717  0.018963208         0.05    5.7327978 0.0086601436    95.812428    10316.577 
    2100    45.201329   0.32573084   0.44008447  0.018963208         0.05    5.8187779 0.0085339406    95.564197    10321.574 
    2200     46.05071   0.32517335   0.44732917  0.018963208         0.05    5.3881134 0.0086335989     96.26649     10322.56 
    2300    46.918973   0.32620888   0.45458427  0.018963208         0.05    5.6572161 0.0087931077    97.517687    10317.588 
    2400    47.781244   0.32629369   0.46198062  0.018963208         0.05    5.4293052 0.0085950846    97.441679    10313.277 
    2500    48.627537   0.32604913   0.46970478  0.018963208         0.05    5.5302222 0.0082719783    95.175449    10318.979 
    2600    49.459021    0.3272544   0.47704981  0.018963208         0.05    5.7912823 0.0085461078    95.518103    10322.716 
    2700     50.33206   0.32668417   0.48462638  0.018963208         0.05    5.0512237 0.0089497164    96.576925    10321.859 
    2800    51.214902   0.32819779   0.49232347  0.018963208         0.05    5.3750923 0.0089014379    95.331699    10325.806 
    2900    52.118149   0.32754427   0.49966555  0.018963208         0.05    5.3651032 0.0089791243    95.822803     10327.56 
    3000    53.013696   0.32819405   0.50684384  0.018963208         0.05    5.4536832 0.0088398989    94.769312    10332.983 
    3100    53.893254   0.32723765   0.51384379  0.018963208         0.05    5.6403513 0.0088088753    97.070215    10329.945 
    3200     54.70853   0.32866597    0.5206163  0.018963208         0.05    6.3242055 0.0074512293    96.934915     10327.48 
    3300    55.450663   0.32841785   0.52697369  0.018963208         0.05    6.3896837 0.0073794698    95.803696     10328.78 
    3400    56.185229   0.32998511   0.53302033  0.018963208         0.05    6.4631403 0.0073047388     94.60713    10333.813 
    3500    56.906245   0.32796157   0.53892058  0.018963208         0.05    6.6681075 0.0072669548     95.49692    10335.694 
    3600    57.636464   0.32833782   0.54447038  0.018963208         0.05    6.5868238 0.0072754739    96.553715     10334.24 
    3700    58.359547    0.3278468   0.54987063  0.018963208         0.05    6.6771631 0.0071877504    95.986525    10334.456 
    3800    59.075142   0.32819511   0.55565844  0.018963208         0.05    6.7487225 0.0071174413     95.68635    10335.463 
    3900    59.783372   0.32846178   0.56170865  0.018963208         0.05    6.8171419 0.0070220467    95.105764    10337.994 
    4000    60.480173   0.32929967   0.56665649  0.018963208         0.05     7.120822 0.0067731069    95.074742    10340.432 
    4100    61.173249   0.32975643   0.57179364  0.018963208         0.05    5.4246417 0.0068509497    96.667784    10338.489 
    4200    61.862624   0.32917278   0.57738465  0.018963208         0.05    5.0371544 0.0068483477    96.902689    10335.994 
    4300    62.541409   0.32816474   0.58322635  0.018963208         0.05    5.7887696 0.0067068504    96.793515    10333.837 
    4400    63.254745   0.32969586   0.58833241  0.018963208         0.05    5.4693414 0.0071683864    97.774087    10329.387 
    4500    63.969814   0.33062836   0.59346918  0.018963208         0.05    5.5392897 0.0071303603    95.792602    10329.769 
    4600    64.748608   0.32949364   0.59920732  0.018963208         0.05    5.6166802 0.0078014757      95.9366    10329.751 
    4700    65.539569    0.3287922   0.60465994  0.018963208         0.05    5.7296481 0.0079092861    96.217133    10329.045 
    4800    66.318338   0.33006011   0.61033558  0.018963208         0.05    5.3369791 0.0076759802      97.4923    10325.507 
    4900    67.142692   0.32976825   0.61691825  0.018963208         0.05    5.8830655 0.0082887412    96.485593    10324.244 
    5000    67.938343   0.33050798   0.62293273  0.018963208         0.05    5.6558873 0.0076551471    95.710172    10324.662 
    5100    68.700389   0.33020035   0.62835154  0.018963208         0.05     5.732092 0.0075784531       95.776    10324.883 
    5200    69.454858   0.33003752   0.63392887  0.018963208         0.05    5.8075388 0.0075037815    96.249723    10324.071 
    5300    70.201947   0.32875999   0.63887257  0.018963208         0.05    5.8822478 0.0074310527    94.921158     10325.98 
    5400    70.941745   0.32957781   0.64427545  0.018963208         0.05    5.9776494 0.0073507283     95.44444    10326.716 
    5500    71.676495   0.33011084   0.64966215  0.018963208         0.05    6.0391275 0.0073189867    96.588023    10325.144 
    5600    72.461107   0.33024971   0.65555818  0.018963208         0.05    5.4403971 0.0085021778    96.981065    10322.845 
    5700    73.298747    0.3298809   0.66205578  0.018963208         0.05    5.5521859 0.0081259238    96.900069    10320.742 
    5800    74.152655   0.33022666    0.6688277  0.018963208         0.05    5.6674108 0.0085616728     96.85109    10318.765 
    5900    75.003409   0.33061859   0.67508765  0.018963208         0.05    5.7524862 0.0084422702    95.489006    10319.302 
    6000    75.822059    0.3302552   0.68158196  0.018963208         0.05    5.5833872 0.0078356101    96.579171    10317.827 
    6100    76.610649   0.33099606   0.68707213  0.018963208         0.05    5.6389233 0.0078534339    95.577067    10318.136 
    6200    77.390687   0.33030733    0.6925732  0.018963208         0.05    5.7162971 0.0076237109    96.259641    10317.212 
    6300    78.220227   0.32959584    0.6987338  0.018963208         0.05    5.5941443 0.0083510777    97.107072    10314.854 
    6400    79.068762   0.32983112   0.70462373  0.018963208         0.05     5.632782 0.0084894867    96.645822      10313.3 
    6500     79.91061   0.33035283   0.71079569  0.018963208         0.05    5.7247534 0.0084328324    96.892459    10311.361 
    6600    80.753615   0.33118537   0.71687721  0.018963208         0.05    5.8119734 0.0084599158    96.777233    10309.633 
    6700     81.58334   0.33115233   0.72350655  0.018963208         0.05    6.0559992 0.0082050219    96.508038    10308.354 
    6800    82.388737   0.33134358   0.72966852  0.018963208         0.05    6.1261299 0.0079729952    96.963398    10306.371 
    6900    83.193003    0.3307988   0.73537445  0.018963208         0.05    6.2020505 0.0080304974    97.305795    10303.893 
    7000    83.990927   0.33087666   0.74144311  0.018963208         0.05    6.0941775 0.0079755544    94.848048    10305.234 
    7100    84.783553     0.330344   0.74749009  0.018963208         0.05    6.1610041 0.0077674963    95.389913     10305.67 
    7200    85.576119   0.33108504   0.75429055  0.018963208         0.05    6.2643085 0.0078701404    97.346242    10303.161 
    7300    86.364263   0.33148185   0.75968605  0.018963208         0.05    5.3821994 0.0080808155    96.393437    10302.072 
    7400    87.226866   0.33155798   0.76546091  0.018963208         0.05    4.8233645  0.008942309    97.134058    10299.924 
    7500    88.134749   0.32964526   0.77242718  0.018963208         0.05    5.1898446 0.0084963006    96.711606    10298.401 
    7600    89.006707   0.33049307   0.77862919  0.018963208         0.05     5.233492 0.0088056363    97.549077    10295.731 
    7700    89.882199   0.32971932   0.78414313  0.018963208         0.05    5.2610946 0.0086462421     96.18011    10294.985 
    7800    90.726943   0.32922713   0.78983709  0.018963208         0.05    5.5268951 0.0080357392    96.030303    10294.437 
    7900    91.605684   0.33027279   0.79591896  0.018963208         0.05    5.6162007 0.0088386225    96.171884    10293.684 
    8000    92.482779    0.3315588   0.80243712  0.018963208         0.05    5.7183849 0.0086796775     94.01632    10295.881 
    8100    93.333457   0.32988376   0.80904199  0.018963208         0.05    5.9293218 0.0082160162    96.598011    10294.516 
    8200    94.139499   0.33030924   0.81499646  0.018963208         0.05    6.0626303 0.0077724758     96.41278    10293.399 
    8300    94.926349   0.33082394   0.82031903  0.018963208         0.05    5.8046471  0.008531986    98.002222    10290.274 
    8400    95.776112   0.33133826    0.8262844  0.018963208         0.05      5.51403 0.0084009859    96.955598      10288.5 
    8500    96.609644   0.33177759   0.83214092  0.018963208         0.05    4.9712821 0.0087635599    97.179654    10286.466 
    8600    97.481186   0.33195661   0.83764674  0.018963208         0.05     5.034321 0.0085058505     97.22518      10284.4 
    8700    98.323892   0.33167754   0.84319355  0.018963208         0.05     5.117424 0.0082706028    96.866747    10282.791 
    8800    99.181452   0.33130949   0.84898472  0.018963208         0.05    5.7950873 0.0083444011    98.097597    10279.736 
    8900    100.01942   0.33061006   0.85522286  0.018963208         0.05    5.3930041 0.0083598424     98.29556    10276.498 
    9000    100.86217   0.33088958   0.86127972  0.018963208         0.05    5.3445313  0.008558608    98.049118    10273.592 
    9100    101.69314   0.33031449   0.86765552  0.018963208         0.05    5.5649886 0.0085021483    98.076424    10270.696 
    9200    102.53994   0.33095812   0.87372432  0.018963208         0.05    5.5565689 0.0084730276     97.64348    10268.327 
    9300    103.26644   0.33155597   0.87894835  0.018963208         0.05    5.5928319 0.0069713849    96.662816    10267.095 
    9400    103.96074   0.33103409   0.88378264  0.018963208         0.05    5.7392625 0.0068713482    96.037295    10266.576 
    9500    104.66268   0.33183516   0.88874494  0.018963208         0.05    5.7837384 0.0071128634    98.060374    10263.807 
    9600    105.37373   0.33123839   0.89387158  0.018963208         0.05    5.8550651 0.0070730856    97.087179    10262.129 
    9700    106.17479   0.33198284   0.89965735  0.018963208         0.05    5.9594833 0.0083701681    98.388114    10259.073 
    9800    107.00396   0.33094556    0.9061148  0.018963208         0.05    6.0389048 0.0081586837    95.801223    10258.833 
    9900    107.82055   0.33038483   0.91175589  0.018963208         0.05    6.1205633 0.0081563751    96.695062    10257.611 
   10000    108.63137   0.33123218   0.91755574  0.018963208         0.05    6.2016452 0.0080500641     95.47277    10257.704 
   10100    109.43173   0.33056785   0.92337541  0.018963208         0.05    6.2826904 0.0079463523    94.679036    10258.634 
   10200    110.22071   0.33070201     0.928962  0.018963208         0.05    6.1485119 0.0078865565     96.89322    10257.184 
   10300    111.01898   0.33096028   0.93526578  0.018963208         0.05    5.3411514 0.0082234283    96.528272    10256.117 
   10400    111.83731   0.32990634   0.94189259  0.018963208         0.05    5.5723856 0.0081321847    96.226206     10255.36 
   10500    112.64634   0.33054033   0.94718154  0.018963208         0.05    5.4517273 0.0080397522    96.006959    10254.821 
   10600    113.45783    0.3316765   0.95235672  0.018963208         0.05    5.4721495 0.0087896652    96.604263    10253.671 
   10700    114.33698   0.33034505   0.95829175  0.018963208         0.05    5.5656973  0.008705655    96.009112    10253.117 
   10800      115.177   0.33162241   0.96456076  0.018963208         0.05    6.0141151 0.0082855047    98.039309    10250.578 
   10900    115.99601   0.33093055    0.9705621  0.018963208         0.05    6.1385337 0.0081148217    96.571055    10249.475 
   11000    116.80034   0.33069388   0.97623921  0.018963208         0.05    6.0114651  0.008067605    97.204023    10247.766 
   11100    117.63593   0.33124704   0.98113746  0.018963208         0.05    5.9093175 0.0083631552    95.437143    10247.766 
   11200    118.47534   0.33017229   0.98751529  0.018963208         0.05    5.5212786 0.0083685033    97.893711    10245.427 
   11300    119.35179   0.33010822   0.99391029  0.018963208         0.05    5.6100562 0.0088086631    95.604778     10245.25 
   11400    120.22976   0.33054148    1.0000024  0.018963208         0.05    5.6377869  0.008736786    97.079629    10243.681 
   11500    121.09017   0.33058548    1.0062149  0.018963208         0.05    5.7303294 0.0085444887    95.524868    10243.561 
   11600    121.92603   0.33132425    1.0119974  0.018963208         0.05    6.0634673 0.0080015853    96.576369    10242.455 
   11700    122.73388    0.3322461     1.017358  0.018963208         0.05     5.873393 0.0080724547    97.817959    10240.239 
   11800    123.59841    0.3316167    1.0230407  0.018963208         0.05    4.9032378 0.0093420876    96.595497    10239.128 
   11900    124.52054   0.33064253    1.0297089  0.018963208         0.05    4.9234845 0.0090014362    97.171527    10237.508 
   12000    125.46003   0.32990654    1.0361695  0.018963208         0.05    5.0175608 0.0097436061    95.730968    10237.173 
   12100    126.33783   0.33024905    1.0414197  0.018963208         0.05    5.1465288 0.0086040525     99.13899    10233.894 
   12200    127.18743   0.33069149    1.0468408  0.018963208         0.05    5.2418995 0.0083496166    96.433972    10232.943 
   12300    128.02328   0.33031903    1.0526705  0.018963208         0.05    5.3087185 0.0083172941    96.395475    10232.025 
   12400     128.8493   0.33069264    1.0579292  0.018963208         0.05    5.4611369 0.0082654537    96.393814    10231.106 
   12500    129.66025   0.32957249    1.0630338  0.018963208         0.05    5.8460582 0.0079006908    96.439271    10230.146 
   12600    130.47175   0.33034461    1.0676907  0.018963208         0.05    5.4870709 0.0090186247    98.268408    10227.673 
   12700    131.38322    0.3289184    1.0732644  0.018963208         0.05    5.3135548 0.0091256996    99.382635    10224.335 
   12800    132.28966   0.33033662    1.0786549  0.018963208         0.05    5.3982308 0.0091848003    97.848606    10222.251 
   12900    133.20603   0.33066094     1.083734  0.018963208         0.05     5.488793 0.0090990066    97.407214    10220.537 
   13000    134.10769   0.33027073    1.0891749  0.018963208         0.05    5.5784768 0.0087949209    95.437686    10220.443 
   13100    134.97245   0.32950004    1.0949806  0.018963208         0.05    5.7420305 0.0085846335    96.159405    10219.741 
   13200     135.8255   0.32963545    1.1010464  0.018963208         0.05    5.8503525 0.0083720473    96.373924    10218.862 
   13300    136.63471   0.33017172    1.1066108  0.018963208         0.05    5.9152012 0.0077888895    96.362787    10217.989 
   13400    137.45988   0.32991657    1.1119116  0.018963208         0.05    4.9651644 0.0089914158    99.042259    10215.046 
   13500    138.34688   0.33179868    1.1181122  0.018963208         0.05    4.5637219 0.0089106018    97.911833    10212.984 
   13600    139.23547   0.33031301    1.1237983  0.018963208         0.05    4.6622368 0.0088699609    95.793893    10212.575 
   13700    140.11771   0.33044816    1.1300842  0.018963208         0.05    5.5442781 0.0088091285    96.834387    10211.349 
   13800    140.98744   0.33098876    1.1355933  0.018963208         0.05    4.6421429 0.0092659594    98.425494    10208.933 
   13900    141.92103   0.33149638    1.1421335  0.018963208         0.05     5.037591 0.0094175519     97.84468    10206.965 
   14000    142.85055   0.33034356    1.1479038  0.018963208         0.05    5.1466456 0.0093016325    95.862553    10206.498 
   14100    143.77162   0.33140375    1.1541806  0.018963208         0.05     5.243038 0.0091377122    94.764109    10206.869 
   14200    144.67807   0.33072909    1.1598414  0.018963208         0.05    5.3442957 0.0083164429    96.282334    10206.065 
   14300     145.5103   0.33094675     1.164545  0.018963208         0.05    5.5270314 0.0083975645    97.281849    10204.522 
   14400    146.35807   0.33063672    1.1692878  0.018963208         0.05    5.0313958 0.0084948449    97.339329    10202.944 
   14500    147.22014   0.33026506    1.1742966  0.018963208         0.05    5.1747265 0.0087445972     97.06552    10201.571 
   14600    148.08434   0.33059326    1.1796202  0.018963208         0.05    5.3957254 0.0086219044    97.139817     10200.15 
   14700    148.94139   0.33088597     1.184775  0.018963208         0.05    5.4815874 0.0085048885    94.510262    10200.654 
   14800    149.77742    0.3313156    1.1897376  0.018963208         0.05    5.9775903 0.0082850438    97.086909    10199.267 
   14900    150.60604    0.3316452    1.1943002  0.018963208         0.05    5.8848026 0.0082852485    94.005742    10200.117 
   15000    151.42588   0.33074452    1.1999118  0.018963208         0.05    5.8525355 0.0083625346    95.649015    10199.742 
   15100    152.25078   0.33009778    1.2049118  0.018963208         0.05    5.9157513 0.0082484457    95.368787    10199.557 
   15200    153.06472   0.33038793     1.209834  0.018963208         0.05    6.1787553 0.0079876999    97.095585    10198.154 
   15300     153.8618   0.33134389    1.2149154  0.018963208         0.05    6.2515519 0.0079118186    97.598311    10196.414 
   15400    154.64738   0.33068958    1.2203609  0.018963208         0.05    6.3240836 0.0078055124    96.380789     10195.51 
   15500    155.42376     0.331478    1.2251364  0.018963208         0.05    6.4017206  0.007713206    96.791102    10194.326 
   15600    156.19069   0.32964428    1.2303716  0.018963208         0.05    6.5825891 0.0075032947    96.788735    10193.145 
   15700    156.97063   0.32902791    1.2351282  0.018963208         0.05    6.0979173 0.0081653651    97.750184    10191.329 
   15800    157.82691   0.32907275    1.2407366  0.018963208         0.05    5.6350828 0.0087373435    99.514658    10188.393 
   15900    158.62229   0.32979617    1.2460824  0.018963208         0.05    5.9973982 0.0073418668    97.542521    10186.739 
   16000    159.34688   0.33028509    1.2506372  0.018963208         0.05    5.9184378 0.0073236244    96.409412    10185.833 
   16100    160.07634   0.32952504    1.2551105  0.018963208         0.05    5.9919891  0.007255273    95.155627    10185.762 
   16200    160.79217   0.33102968     1.260539  0.018963208         0.05    6.2937384 0.0071848155    97.055907    10184.428 
   16300    161.50821   0.33018131    1.2646818  0.018963208         0.05    6.3080906 0.0071489931    96.241396    10183.625 
   16400    162.22878   0.33120753    1.2688499  0.018963208         0.05    6.1875557  0.007213484    96.599502    10182.587 
   16500    162.99614   0.33090193    1.2733588  0.018963208         0.05    5.1961138 0.0089861716    97.954135    10180.697 
   16600    163.87247   0.32955896     1.277835  0.018963208         0.05    4.9857787  0.008487316    96.533204    10179.707 
   16700    164.73113   0.33105258    1.2823674  0.018963208         0.05    4.9967045 0.0085978777    97.196747      10178.3 
   16800    165.58707   0.32920371    1.2874934  0.018963208         0.05    5.0765569  0.008506461    96.017574    10177.637 
   16900    166.43379   0.33053115    1.2927682  0.018963208         0.05    5.3555255 0.0084380306     96.77375    10176.496 
   17000    167.27398   0.33040076    1.2984485  0.018963208         0.05     5.184122  0.008334586     94.00414    10177.117 
   17100    168.11849   0.33006617    1.3036505  0.018963208         0.05     5.275734 0.0091169244    97.953655    10175.253 
   17200    169.02668   0.33053763    1.3093225  0.018963208         0.05     5.373586 0.0090662314    95.228758    10175.068 
   17300    169.91472   0.33071747    1.3151037  0.018963208         0.05    5.5258427 0.0088954657    96.688598    10173.972 
   17400    170.78777   0.33005132      1.32143  0.018963208         0.05    5.7801214 0.0085911164    96.048203    10173.266 
   17500    171.64081   0.33037011    1.3271689  0.018963208         0.05    5.8881813 0.0084462238     95.43495    10172.932 
   17600    172.48189   0.33014018    1.3331264  0.018963208         0.05    5.9564681 0.0083460577    94.932502      10172.9 
   17700    173.29803   0.33110964    1.3376604  0.018963208         0.05    5.8543123  0.008487083    96.800752    10171.727 
   17800    174.14638   0.32955081    1.3430692  0.018963208         0.05    5.0583077 0.0084603395    96.835415    10170.536 
   17900    174.97889   0.32954358    1.3478648  0.018963208         0.05    4.8877791 0.0080673821    97.117078    10169.182 
   18000    175.83301   0.32857212    1.3532994  0.018963208         0.05    4.9420782 0.0084028086    95.048715    10169.055 
   18100     176.7278   0.33073259     1.359616  0.018963208         0.05    5.0266762 0.0089901439    97.862305    10167.276 
   18200    177.62317    0.3298412    1.3655101  0.018963208         0.05    5.1089487 0.0089040903    95.553137    10166.837 
   18300    178.50581   0.33004712    1.3712122  0.018963208         0.05    5.1996589 0.0088434853    97.041221    10165.532 
   18400    179.38407   0.33059831    1.3771828  0.018963208         0.05    5.2663874 0.0087238065    95.546759    10165.088 
   18500    180.24682   0.32983547    1.3830447  0.018963208         0.05    5.3655786  0.009174365    97.050427    10163.779 
   18600    181.15574   0.32901334    1.3905468  0.018963208         0.05    5.4904873 0.0089336696    96.133618     10162.99 
   18700    182.04231   0.33015525    1.3963713  0.018963208         0.05    5.6142848 0.0088165784    96.551648    10161.963 
   18800      182.918   0.32983938    1.4025337  0.018963208         0.05    5.7206456 0.0086229555    95.940484     10161.28 
   18900    183.75031   0.33038675    1.4088029  0.018963208         0.05    6.0521133 0.0080116466    97.942904    10159.486 
   19000    184.54636   0.33260338    1.4148639  0.018963208         0.05    6.0916633 0.0079068217    95.679846    10158.948 
   19100    185.33025   0.32924043    1.4210872  0.018963208         0.05    6.2232841 0.0077995811    96.258448    10158.082 
   19200    186.10712   0.33039215     1.426561  0.018963208         0.05    6.2855436 0.0077213374    96.432952    10157.118 
   19300    186.87341    0.3305459    1.4310014  0.018963208         0.05    6.3400876 0.0074924972     95.45517    10156.693 
   19400    187.64211    0.3314191    1.4366681  0.018963208         0.05    6.2052426 0.0080372493    96.504152    10155.686 
   19500    188.44123   0.33036827    1.4420004  0.018963208         0.05    6.2851544 0.0079355691    96.406908    10154.731 
   19600    189.23017   0.33057118     1.448203  0.018963208         0.05    6.3837363 0.0078098216    95.580094    10154.225 
   19700    190.01969   0.33033226    1.4542206  0.018963208         0.05    6.3618256  0.007768433    98.532156    10152.153 
   19800    190.80888   0.33051328    1.4600295  0.018963208         0.05     6.171149 0.0077967757    98.158365    10150.283 
   19900    191.59229   0.32898226    1.4655311  0.018963208         0.05     6.249494 0.0078570637    96.579349    10149.241 
   20000    192.37376   0.33021292    1.4706065  0.018963208         0.05    6.3276405 0.0077634188    95.056298    10149.013 
   20100    193.14544    0.3294747    1.4762867  0.018963208         0.05    6.4072359 0.0076707764    94.433978    10149.115 
   20200    193.90914   0.32998223    1.4815553  0.018963208         0.05    6.2077624  0.007823035    96.138312    10148.294 
   20300    194.68762   0.33062756    1.4868877  0.018963208         0.05    6.2650958 0.0077339641     97.38037    10146.832 
   20400    195.46627   0.33073963    1.4917485  0.018963208         0.05    6.2537993 0.0077518681    95.572776    10146.306 
   20500     196.2356   0.33061926    1.4967119  0.018963208         0.05    6.3471542 0.0075778017    95.485094     10145.82 
   20600    197.02776   0.33050538    1.5029311  0.018963208         0.05    5.4103114 0.0086202498    97.363484    10144.369 
   20700    197.88387   0.33098779    1.5082852  0.018963208         0.05    5.5111153 0.0084877494     95.65929    10143.788 
   20800    198.71215    0.3324113    1.5133515  0.018963208         0.05    5.2401924 0.0087188545    97.135745    10142.454 
   20900    199.57319     0.330773    1.5186964  0.018963208         0.05    5.4319598 0.0086351771    96.891899    10141.244 
   21000    200.43383   0.33049618    1.5249568  0.018963208         0.05    5.4221653 0.0084819312    94.378347    10141.318 
   21100    201.28001   0.33121723    1.5305601  0.018963208         0.05     5.646495  0.008191386    96.615746    10140.242 
   21200    202.12172   0.33138279    1.5361422  0.018963208         0.05    5.7237656 0.0084490023    95.846868     10139.55 
   21300    202.96143   0.33168643    1.5421326  0.018963208         0.05    5.8085126 0.0083333919    95.198477    10139.181 
   21400    203.89754   0.33211007    1.5493448  0.018963208         0.05    4.8691667 0.0099299244    96.061578    10138.375 
   21500    204.84076   0.33200528    1.5557187  0.018963208         0.05    4.9859727 0.0093530585    96.344769    10137.426 
   21600    205.76383   0.33180045    1.5619681  0.018963208         0.05    5.5062152 0.0088752947    96.909361    10136.204 
   21700    206.63784   0.32941838    1.5679679  0.018963208         0.05    5.5069711 0.0086959457    96.646379    10135.109 
   21800    207.49869   0.33104451    1.5728954  0.018963208         0.05    5.7590186 0.0084227999    95.103047    10134.769 
   21900    208.34274   0.32953605     1.579409  0.018963208         0.05    5.8456705 0.0083686427     96.79175    10133.602 
   22000    209.17455   0.32980548    1.5854639  0.018963208         0.05    5.9286763 0.0082567021    94.351979    10133.625 
   22100      209.995   0.33083487    1.5916424  0.018963208         0.05     6.022047 0.0081405133    95.803521    10132.927 
   22200     210.8054   0.33044184    1.5975467  0.018963208         0.05    6.1134301 0.0080254044    95.504052     10132.37 
   22300    211.60266   0.33029002    1.6025247  0.018963208         0.05    6.1821836 0.0079380392    96.591382    10131.292 
   22400    212.39146   0.33089427    1.6084959  0.018963208         0.05    6.3779283 0.0077138523    95.632746    10130.667 
   22500    213.16237   0.33207251    1.6134461  0.018963208         0.05    6.3625139 0.0078012045    97.309294    10129.256 
   22600    213.95071   0.33150067    1.6190949  0.018963208         0.05    6.3175231 0.0078566382    96.568076    10128.189 
   22700    214.73338   0.33007596    1.6239807  0.018963208         0.05    6.2668015 0.0078955285    96.542336    10127.135 
   22800    215.52656    0.3306012    1.6286495  0.018963208         0.05     6.201688 0.0079278022    97.528436    10125.632 
   22900    216.30476   0.33145028    1.6335576  0.018963208         0.05    6.3500041 0.0077525465    97.028223    10124.358 
   23000    217.07587   0.33215263    1.6384634  0.018963208         0.05     6.435653 0.0076534053    92.695591    10125.133 
   23100    217.83555   0.33079459    1.6435115  0.018963208         0.05    6.4114549 0.0077932117    95.300075    10124.645 
   23200    218.62492   0.33073853    1.6480004  0.018963208         0.05    6.4038535 0.0077967782    97.970746    10122.948 
   23300    219.39713   0.32966472    1.6534889  0.018963208         0.05    6.4782453 0.0076816498    95.796081    10122.228 
   23400    220.21143   0.32991969    1.6592643  0.018963208         0.05    5.3922195 0.0087386602    97.143687    10120.901 
   23500    221.06498   0.33168536    1.6647953  0.018963208         0.05     5.467673 0.0081363253    97.280428    10119.516 
   23600    221.94254   0.33083485    1.6712308  0.018963208         0.05     5.304763 0.0087606969    96.328616    10118.555 
   23700    222.82973   0.33274845    1.6770161  0.018963208         0.05    5.4032448 0.0088891811    97.837012    10116.934 
   23800     223.7113   0.33284142    1.6838281  0.018963208         0.05    5.4821008  0.008453349    97.992926     10115.25 
   23900    224.58433   0.33277142    1.6897187  0.018963208         0.05    5.5543527 0.0088077772    97.032825    10113.985 
   24000    225.46233   0.33082688    1.6956605  0.018963208         0.05     5.635509 0.0087194245    95.847416     10113.24 
   24100    226.32863   0.33123553      1.70044  0.018963208         0.05    5.7318516  0.008571778    95.532875    10112.632 
   24200    227.18284   0.33056648    1.7055983  0.018963208         0.05    5.9871195 0.0081621177    96.202965    10111.726 
   24300    228.05702   0.33083084    1.7114706  0.018963208         0.05    4.8390289 0.0084217221    95.335253    10111.199 
   24400    228.99431   0.33156493    1.7178103  0.018963208         0.05    4.8579212 0.0095411655    96.996226    10109.949 
   24500    229.91839   0.33160501     1.724286  0.018963208         0.05    5.1734123 0.0093984325    97.137455    10108.642 
   24600    230.84176   0.33014055    1.7309106  0.018963208         0.05    4.9826039 0.0095300665    96.567876    10107.577 
   24700    231.79027   0.33063224    1.7371069  0.018963208         0.05    4.9417448 0.0095465735    97.634229    10106.067 
   24800    232.73764   0.33025813     1.744316  0.018963208         0.05    5.0902805 0.0087908388    95.327149    10105.535 
   24900    233.64434   0.33122954    1.7497382  0.018963208         0.05    5.0121526 0.0090800036    96.447454    10104.521 
   25000    234.54728   0.33103375    1.7556288  0.018963208         0.05    5.0432352  0.008635552    95.150209    10104.059 
   25100    235.45699   0.33175367    1.7610492  0.018963208         0.05    4.5794412 0.0092970502    96.208128    10103.143 
   25200    236.39198   0.33008354    1.7675874  0.018963208         0.05     4.963065 0.0091580595    97.090303    10101.861 
   25300    237.31709   0.32935098    1.7740767  0.018963208         0.05    5.0181905  0.009263734     97.24628    10100.517 
   25400     238.1598   0.33104553    1.7796494  0.018963208         0.05    5.2148992 0.0080281991    97.610417    10099.028 
   25500    238.96235   0.33141272    1.7851511  0.018963208         0.05    5.2741455 0.0079586778    96.200538    10098.117 
   25600    239.76171   0.33088254    1.7903261  0.018963208         0.05     5.287628  0.007959682    96.782101    10096.967 
   25700    240.63215   0.33077296    1.7967772  0.018963208         0.05    5.1791548 0.0091216598    97.873791    10095.381 
   25800    241.51988   0.33277013    1.8026177  0.018963208         0.05    5.2133624 0.0087083201    96.623202    10094.299 
   25900    242.35358   0.33134048    1.8081014  0.018963208         0.05    5.0968072 0.0085168612    96.935207    10093.092 
   26000    243.21985   0.33176522    1.8138082  0.018963208         0.05    5.1828491 0.0086988554    97.948943    10091.486 
   26100    244.08991   0.33108584    1.8194903  0.018963208         0.05     5.843141 0.0085222895    96.216581    10090.571 
   26200    244.99076   0.33182013    1.8248227  0.018963208         0.05     4.971694 0.0093195398    97.037629    10089.327 
   26300    245.90401   0.33253138    1.8300611  0.018963208         0.05    4.8908951 0.0090658798     95.37243    10088.752 
   26400    246.81516   0.33069581    1.8363182  0.018963208         0.05    4.9961344  0.009315463    98.281165    10087.029 
   26500    247.74422   0.33043063    1.8425436  0.018963208         0.05    5.1658533  0.009291903    95.877279    10086.248 
   26600    248.64989   0.33074326    1.8489653  0.018963208         0.05    5.4190685 0.0089167104    96.817332    10085.094 
   26700    249.54839   0.33097481    1.8553688  0.018963208         0.05    5.3970554 0.0089026402    96.538781     10084.05 
   26800    250.42973   0.33061023    1.8613594  0.018963208         0.05    5.5545954 0.0087714235     95.14531    10083.557 
   26900    251.29702   0.33012324    1.8671229  0.018963208         0.05    5.6488759 0.0084424929    95.926221    10082.751 
   27000    252.14784   0.33124845    1.8731072  0.018963208         0.05    5.9871541 0.0080859475    95.714387    10082.025 
   27100    252.97183   0.33111495    1.8788149  0.018963208         0.05    6.0188035 0.0082426586    95.591226    10081.346 
   27200    253.76015   0.33106463    1.8835904  0.018963208         0.05    5.7596705 0.0078814804    98.166843    10079.683 
   27300    254.54547   0.32975209    1.8892927  0.018963208         0.05    5.8382027 0.0078309349    95.589308    10079.002 
   27400      255.325   0.33131602    1.8936856  0.018963208         0.05    5.9131541 0.0077496053    95.489833    10078.358 
   27500    256.09481   0.33097144    1.8990133  0.018963208         0.05    5.9755005 0.0078083509    96.281318    10077.407 
   27600    256.87387   0.33184017    1.9045788  0.018963208         0.05     5.938559 0.0077858669    96.879993    10076.228 
   27700    257.64519   0.33109279    1.9103776  0.018963208         0.05    5.3096469 0.0076907762    96.291331    10075.273 
   27800     258.4176   0.33161772    1.9159266  0.018963208         0.05    5.2425023 0.0077042343    97.715023    10073.787 
   27900    259.19747   0.33213962    1.9209312  0.018963208         0.05    5.6374264 0.0083253871    96.021553    10072.934 
   28000     260.0016    0.3314531    1.9271036  0.018963208         0.05     5.599325 0.0079725973     96.96425    10071.728 
   28100    260.79655   0.33202649    1.9329344  0.018963208         0.05    5.6935876 0.0079319691    95.148741    10071.203 
   28200    261.58747   0.33126864    1.9391437  0.018963208         0.05    5.7462113 0.0078985609    96.430425    10070.194 
   28300    262.38386   0.33171712    1.9449836  0.018963208         0.05    5.8253316 0.0081477246    97.435884    10068.817 
   28400    263.21565   0.33248652    1.9514539  0.018963208         0.05    5.9085103 0.0083411404    93.414197    10068.954 
   28500    264.04349    0.3315488    1.9572869  0.018963208         0.05    5.9988494 0.0082020896    92.679021    10069.372 
   28600    264.85547     0.331366    1.9626828  0.018963208         0.05    5.7529627 0.0081641272    93.202013    10069.574 
   28700    265.66067   0.33211572    1.9679469  0.018963208         0.05    6.0453815 0.0079527392    93.266011    10069.742 
   28800    266.45215   0.33194147    1.9735077  0.018963208         0.05    6.1205135 0.0078639328    95.058215     10069.22 
   28900    267.23415   0.33153015    1.9785557  0.018963208         0.05    6.2203174 0.0078027259    96.395475    10068.204 
   29000    268.00599   0.33198936    1.9833547  0.018963208         0.05     6.409284 0.0075177942    94.176692    10068.006 
   29100    268.77375    0.3314959    1.9884418  0.018963208         0.05    5.7336959 0.0080528862    96.541581    10066.934 
   29200    269.60275   0.33241784    1.9936324  0.018963208         0.05    5.8289381 0.0083211212    92.830092    10067.239 
   29300    270.43896   0.33190189     1.999592  0.018963208         0.05    5.9280746 0.0082974836    92.204817    10067.777 
   29400    271.26766   0.33223342    2.0051237  0.018963208         0.05    5.9716609  0.008243404    93.145942    10067.942 
   29500    272.08676   0.33192783    2.0105895  0.018963208         0.05    6.0586177 0.0081257998    92.735146    10068.255 
   29600    272.88427   0.33299861    2.0161657  0.018963208         0.05    5.9441896 0.0078797881     93.96659    10068.096 
   29700    273.66956   0.33200604    2.0218724  0.018963208         0.05    6.0242948 0.0078038209    92.701778    10068.405 
   29800    274.44345   0.33158784    2.0276884  0.018963208         0.05    6.1774117 0.0075285103     91.89275    10069.013 
   29900    275.22873    0.3325907    2.0321747  0.018963208         0.05     6.000447 0.0080638412    93.115688    10069.147 
   30000    276.02702   0.33083751    2.0371095  0.018963208         0.05    6.0821395 0.0079299987    92.327571    10069.569 
   30100    276.81566   0.32963429    2.0419628  0.018963208         0.05    6.1974439  0.007794305    91.811928    10070.177 
   30200    277.58911   0.33177899    2.0466854  0.018963208         0.05    6.3376347 0.0077206383    93.054415    10070.306 
   30300    278.35489   0.33122908    2.0522849  0.018963208         0.05     6.426042 0.0076208627    92.906688    10070.483 
   30400    279.11363   0.33165178    2.0577339  0.018963208         0.05    6.4935668 0.0075436898    92.378999    10070.847 
   30500    279.86398   0.33166277    2.0630287  0.018963208         0.05     6.568601 0.0074609216     92.63978    10071.105 
   30600    280.60643   0.33080917    2.0682612  0.018963208         0.05    6.6433287 0.0073791351    92.170817    10071.528 
   30700    281.34283   0.33173388    2.0732617  0.018963208         0.05    6.3197378 0.0074207769    93.373292      10071.5 
   30800    282.11056   0.33167815    2.0787472  0.018963208         0.05     5.535461 0.0081781227    96.686659    10070.311 
   30900    282.92517   0.33440419    2.0841767  0.018963208         0.05    5.6448167 0.0081090814    95.496116    10069.527 
   31000    283.73259    0.3322996    2.0898993  0.018963208         0.05    5.7979075  0.008031932     95.23291    10068.831 
   31100    284.53014   0.33215283    2.0953364  0.018963208         0.05     5.895692 0.0079585146    95.695978    10067.976 
   31200    285.31766   0.33070378    2.1010374  0.018963208         0.05    5.2307656 0.0078205151    95.850723    10067.066 
   31300    286.09553   0.33146412    2.1063891  0.018963208         0.05    5.4612728 0.0076841396    95.609704    10066.237 
   31400    286.88919   0.33112477    2.1120804  0.018963208         0.05    5.5257979 0.0079308471    97.585345    10064.754 
   31500    287.70462   0.33161181    2.1181261  0.018963208         0.05    5.5833121 0.0082014177    97.990705    10063.143 
   31600    288.51969   0.33195077    2.1236023  0.018963208         0.05    5.6973875 0.0081026938    96.730876    10061.943 
   31700    289.32674   0.33259507    2.1291356  0.018963208         0.05     5.724685 0.0080352826    95.713557     10061.08 
   31800    290.11893   0.33214273    2.1338685  0.018963208         0.05    5.9802904 0.0078839665    95.774819    10060.195 
   31900    290.89653   0.33141254      2.13872  0.018963208         0.05    6.3122799 0.0075326072    95.706307    10059.332 
   32000    291.63815   0.33266625    2.1427953  0.018963208         0.05    6.4478747 0.0073782993    95.731908    10058.459 
   32100    292.37215   0.33122763    2.1472094  0.018963208         0.05    6.5346474 0.0072683054    95.068406    10057.806 
   32200     293.1542   0.33307243    2.1524433  0.018963208         0.05    4.9283051 0.0089210943    96.237046    10056.765 
   32300    294.00701   0.33111972    2.1584035  0.018963208         0.05    5.4205433 0.0088847894    97.185599    10055.421 
   32400    294.87882   0.33222077    2.1635126  0.018963208         0.05    5.5007056 0.0089320432    96.313508    10054.357 
   32500    295.73964   0.33182737     2.169347  0.018963208         0.05    5.1091751 0.0085985655    97.102935    10053.042 
   32600    296.63525   0.33116072    2.1751699  0.018963208         0.05    5.1987356 0.0090159401    97.023599    10051.754 
   32700    297.52735   0.33178681     2.181407  0.018963208         0.05    5.4016938 0.0090415309    96.661881    10050.582 
   32800    298.41331   0.33134373    2.1878707  0.018963208         0.05    5.5047448 0.0088528567    97.017203    10049.298 
   32900    299.28648   0.33181386    2.1933006  0.018963208         0.05    5.6630228 0.0087873247    97.564507    10047.846 
   33000    300.16504   0.33096927    2.1989185  0.018963208         0.05    5.4078273 0.0089318697    95.148007     10047.16 
   33100    301.03238   0.33160655    2.2040799  0.018963208         0.05    5.6408105 0.0082535431    96.069785    10046.176 
   33200    301.86857    0.3304569    2.2095545  0.018963208         0.05    5.7543115 0.0083776114     96.62939    10045.017 
   33300    302.69883     0.332834    2.2146907  0.018963208         0.05     5.616366 0.0080740748    95.602752    10044.181 
   33400    303.52851   0.33246975    2.2201472  0.018963208         0.05    5.5463932 0.0087190506    96.976939    10042.915 
   33500    304.39992    0.3310627    2.2263478  0.018963208         0.05    5.6599138 0.0086343402    96.477226    10041.805 
   33600    305.24366    0.3318034    2.2313592  0.018963208         0.05    5.9838269 0.0080443246    95.817374      10040.9 
   33700    306.06544   0.33243325    2.2368822  0.018963208         0.05    5.8881193 0.0083074583    95.945619    10039.954 
   33800    306.89135   0.33210818    2.2425602  0.018963208         0.05    5.9405291 0.0082085866    95.498138    10039.148 
   33900     307.6964   0.33142645    2.2479676  0.018963208         0.05    6.1387621 0.0079846026    96.747343    10037.954 
   34000    308.48028   0.33163447    2.2536808  0.018963208         0.05    6.3164775 0.0077559754    96.492696     10036.84 
   34100    309.25011   0.33107112    2.2585207  0.018963208         0.05      6.44623 0.0075641077    95.605672    10035.997 
   34200    309.99966   0.33078029    2.2631344  0.018963208         0.05    6.8099523 0.0072472008    96.686079    10034.824 
   34300    310.79906   0.32929818    2.2684321  0.018963208         0.05    5.4279223 0.0080178421    96.679639    10033.654 
   34400    311.65466   0.33027489    2.2744271  0.018963208         0.05    5.1768075 0.0089231596    97.525669    10032.232 
   34500    312.54938   0.33034753    2.2800744  0.018963208         0.05    4.9930856 0.0089276566    95.172015    10031.522 
   34600    313.43928   0.33190226    2.2858046  0.018963208         0.05    5.1770638 0.0088632682    96.070159    10030.536 
   34700    314.30878   0.33142255    2.2913338  0.018963208         0.05    5.2507018 0.0089079502    95.523019    10029.716 
   34800    315.19653   0.33052077    2.2973998  0.018963208         0.05    5.2586689 0.0088527385    96.500888      10028.6 
   34900    316.07771   0.33011367    2.3027895  0.018963208         0.05    5.2679764  0.008953257    96.380435    10027.521 
   35000    316.96726    0.3317909    2.3082039  0.018963208         0.05    5.4285083 0.0088263706    95.213885    10026.792 
   35100    317.83735   0.33126608    2.3137898  0.018963208         0.05    5.2516212   0.00869676    95.872961    10025.863 
   35200    318.71546   0.33148689    2.3197022  0.018963208         0.05    5.1802746 0.0088321687    97.499711    10024.457 
   35300    319.59022   0.33155773    2.3250687  0.018963208         0.05    5.1713029 0.0089306128    96.608001    10023.311 
   35400    320.47965   0.33135807     2.330991  0.018963208         0.05    5.2646402 0.0089713621     96.56443    10022.178 
   35500    321.36604   0.33097001    2.3376696  0.018963208         0.05    5.4929433  0.008115715    95.166207     10021.46 
   35600    322.18995   0.33074325    2.3430672  0.018963208         0.05    5.4549733 0.0083164197     98.16126    10019.871 
   35700    323.01707   0.33007043    2.3485237  0.018963208         0.05    5.6559434 0.0080313845     96.21795    10018.841 
   35800    323.81673    0.3317181    2.3531284  0.018963208         0.05    5.7474045 0.0079656241     96.88458    10017.618 
   35900    324.60916   0.33172807    2.3586014  0.018963208         0.05    5.8266482 0.0078744982    94.869738    10016.985 
   36000    325.39187   0.33154279    2.3641899  0.018963208         0.05    5.8736826 0.0077736789    95.776897    10016.083 
   36100    326.16749   0.33048108    2.3692907  0.018963208         0.05    5.9464451 0.0077204889    95.700651    10015.201 
   36200    326.93576   0.33081242    2.3750049  0.018963208         0.05    6.0232213 0.0076340539    94.178109    10014.769 
   36300    327.70909   0.33079468    2.3798769  0.018963208         0.05    5.4497565 0.0083877152      96.8629    10013.552 
   36400      328.543   0.33078961    2.3854124  0.018963208         0.05    5.5346586 0.0082795234     94.95395    10012.885 
   36500    329.36543   0.33204384    2.3909851  0.018963208         0.05    5.6296064 0.0080457833    95.705324    10011.998 
   36600     330.1866   0.33152564    2.3960097  0.018963208         0.05    5.4011529 0.0084389269    97.802768    10010.521 
   36700    331.03363   0.33134726    2.4013873  0.018963208         0.05    5.3614594 0.0084572004    96.031952     10009.54 
   36800    331.87597   0.33127986    2.4068209  0.018963208         0.05    5.5832456 0.0084589281    96.337444    10008.473 
   36900    332.71046    0.3311558    2.4121468  0.018963208         0.05    5.7858774 0.0081433169     96.88702    10007.253 
   37000    333.54279   0.33144759    2.4172533  0.018963208         0.05    5.2889738 0.0084269606    96.621354    10006.107 
   37100    334.37937   0.33038673    2.4232853  0.018963208         0.05    4.9757181 0.0084763034     96.90589    10004.883 
   37200    335.20621   0.33183816    2.4278336  0.018963208         0.05    5.8563259 0.0080265527    95.701109    10003.996 
   37300    336.05702   0.33086009    2.4327563  0.018963208         0.05    4.9887795 0.0089564762    97.022567    10002.741 
   37400    336.94838   0.33125381    2.4384114  0.018963208         0.05    5.0429194  0.009075995    95.706503    10001.852 
   37500    337.84463   0.33099056    2.4440715  0.018963208         0.05    5.0019826 0.0071590268    97.096147    10000.579 
   37600    338.55802   0.33142677    2.4483988  0.018963208         0.05    5.2953871 0.0071148748    97.970151    9999.0711 
   37700    339.27069   0.33143409    2.4530065  0.018963208         0.05    5.1672998 0.0070200439    96.313044    9998.0145 
   37800    339.97632   0.33046888    2.4573032  0.018963208         0.05    5.2573089 0.0089792877    97.489649     9996.639 
   37900    340.81871   0.33145763    2.4619717  0.018963208         0.05    5.2106542 0.0080591005    97.569908    9995.2439 
   38000    341.62178   0.33049484     2.467425  0.018963208         0.05    5.1846517  0.007985115    94.577499    9994.6717 
   38100    342.41653   0.33106027    2.4718793  0.018963208         0.05    5.2641264 0.0079018724     94.26936    9994.1842 
   38200     343.1971   0.33189364    2.4763675  0.018963208         0.05    5.0322838  0.008835474    95.638503    9993.3114 
   38300    344.07311   0.33096497     2.481712  0.018963208         0.05     4.870352 0.0082005364    96.224175    9992.2779 
   38400    344.93953   0.32957608    2.4867689  0.018963208         0.05     5.079914 0.0085730114    98.156918    9990.7319 
   38500    345.78103   0.33000124     2.492397  0.018963208         0.05    5.3787877 0.0082759226    96.074472    9989.7401 
   38600    346.59662   0.33018621    2.4986438  0.018963208         0.05    5.1408292 0.0082992894    96.222232    9988.7082 
   38700    347.38505   0.33088338    2.5028498  0.018963208         0.05    5.4764561 0.0075419477    96.654597    9987.5609 
   38800    348.13698   0.33181828    2.5081666  0.018963208         0.05    5.1818027 0.0074915794    95.916986    9986.6112 
   38900    348.88394   0.33109578     2.512452  0.018963208         0.05     6.042866 0.0081161388    96.414731    9985.5281 
   39000     349.7413    0.3306916    2.5186231  0.018963208         0.05    5.7023525 0.0086955908    95.642624    9984.6515 
   39100    350.60029   0.33178162    2.5239896  0.018963208         0.05    5.8708089 0.0084715454    95.815908    9983.7276 
   39200    351.44211    0.3313139    2.5289408  0.018963208         0.05    5.9695581 0.0083397609    95.287734    9982.9448 
   39300    352.27376   0.33124331    2.5338034  0.018963208         0.05    5.9580275 0.0083680475    97.731735    9981.5192 
   39400    353.10537   0.32988761    2.5392401  0.018963208         0.05    6.0415811 0.0082527982    95.706154    9980.6236 
   39500    353.87807   0.33158155    2.5439322  0.018963208         0.05    5.8246609 0.0074888387    96.593428    9979.4939 
   39600    354.66329   0.33218259    2.5490651  0.018963208         0.05    5.1667547 0.0082342884    96.613231    9978.3595 
   39700    355.48332   0.33091256     2.554965  0.018963208         0.05    5.2152618 0.0081692841    95.256247    9977.5822 
   39800     356.3296   0.33033286    2.5609171  0.018963208         0.05    5.2573374 0.0089289243    96.829223    9976.3922 
   39900    357.21468   0.33133636    2.5666704  0.018963208         0.05    5.3401241 0.0087045293    95.949855    9975.4306 
   40000    358.11203    0.3310982    2.5720524  0.018963208         0.05    5.4321245 0.0089449643    96.638429    9974.2905 
   40100    359.00399   0.33063871    2.5775156  0.018963208         0.05    5.5243622 0.0088487425    95.626445     9973.413 
   40200    359.88195   0.33006141    2.5820997  0.018963208         0.05    5.3968067 0.0086859602    96.938679    9972.1967 
   40300    360.74763   0.33056269    2.5872439  0.018963208         0.05    5.1413375 0.0086049118    96.008167    9971.2195 
   40400     361.6029    0.3299507    2.5927686  0.018963208         0.05    5.2368675 0.0084906232    95.811859    9970.2925 
   40500    362.45297   0.33001568    2.5983169  0.018963208         0.05    4.9800613 0.0093689792    96.141287    9969.2803 
   40600    363.39285   0.33116889    2.6050802  0.018963208         0.05     5.133558 0.0094317493     96.67458    9968.1324 
   40700    364.32746   0.33041009    2.6110124  0.018963208         0.05     5.038218 0.0093780448    91.653734    9968.3206 
   40800    365.25145   0.33040415    2.6173217  0.018963208         0.05    5.1918673 0.0091627905    93.366682     9968.032 
   40900    366.16265   0.33116032    2.6237579  0.018963208         0.05    5.1847516 0.0093981426     93.78409    9967.6277 
   41000    367.08301   0.33209941    2.6296091  0.018963208         0.05    5.5029371 0.0089599767    92.792694    9967.4867 
   41100     367.9885   0.33093881    2.6356289  0.018963208         0.05    5.3900821 0.0089866122    94.117457    9966.9872 
   41200    368.88987   0.33165126    2.6411265  0.018963208         0.05    4.9208924 0.0091620392    93.149334    9966.7419 
   41300    369.80391   0.33214154     2.647194  0.018963208         0.05     4.918646 0.0088910372    93.691306    9966.3485 
   41400     370.7092   0.33150596    2.6528068  0.018963208         0.05     5.075764 0.0090496462    94.502405    9965.7397 
   41500    371.66745   0.33057555    2.6591893  0.018963208         0.05    5.0535483 0.0097784934    96.669923    9964.5808 
   41600    372.58164   0.33116241    2.6644407  0.018963208         0.05    4.7149648  0.008931813    98.635083    9962.9476 
   41700    373.53075   0.33012233    2.6699448  0.018963208         0.05     4.845579 0.0097159234    96.241485    9961.8969 
   41800    374.48436   0.33074542    2.6758696  0.018963208         0.05    4.7297842 0.0093697909    96.899778    9960.6844 
   41900    375.40874   0.33075498     2.681484  0.018963208         0.05    5.0117581 0.0097710562    95.048004    9959.9326 
   42000    376.37775   0.33095468    2.6874944  0.018963208         0.05    5.1484716 0.0096757546    95.771036    9958.9981 
   42100    377.32283   0.33062934    2.6933476  0.018963208         0.05    4.8981226 0.0093031092    96.665334    9957.8433 
   42200    378.25135   0.33174002    2.6998678  0.018963208         0.05    4.9561959 0.0092439411    96.737078    9956.6717 
   42300    379.16961   0.33088546    2.7063556  0.018963208         0.05    4.8144885 0.0091052349    95.595147    9955.7803 
   42400    380.07498   0.33187065    2.7116803  0.018963208         0.05     4.905565 0.0089872802    95.498312    9954.9121 
   42500    380.96638   0.33138505    2.7172946  0.018963208         0.05    4.9640654 0.0088804159     95.39692    9954.0681 
   42600    381.84151   0.33051296     2.722339  0.018963208         0.05    4.9099157 0.0086340667    96.651122    9952.9175 
   42700    382.77081   0.33109014    2.7278015  0.018963208         0.05    4.8745034  0.009357539    96.747365    9951.7444 
   42800    383.69629   0.33037551    2.7333587  0.018963208         0.05    5.0759672  0.009114037    95.759666    9950.8103 
   42900    384.52664   0.32978686    2.7385277  0.018963208         0.05    4.9773161 0.0078277032    96.624226    9949.6673 
   43000    385.30634   0.33020356    2.7436162  0.018963208         0.05    5.0892693 0.0077603918    90.963929     9949.958 
   43100    386.07736   0.33141625     2.748616  0.018963208         0.05     4.862454 0.0077563219    93.582228    9949.5594 
   43200    386.84984   0.33007447    2.7537488  0.018963208         0.05    4.9014017 0.0076816716    92.873258    9949.3384 
   43300    387.61507   0.33051783    2.7589703  0.018963208         0.05     5.033323  0.007591662    92.509175     9949.207 
   43400    388.36312   0.33099568    2.7644765  0.018963208         0.05    5.0463016 0.0070350787    93.481966    9948.8233 
   43500    389.06693   0.33151267    2.7692256  0.018963208         0.05    5.3405828  0.007014329    93.707005      9948.38 
   43600    389.78939   0.33163658    2.7739435  0.018963208         0.05    5.3431418 0.0080657459    93.420668    9948.0056 
   43700    390.63802   0.33163557    2.7787962  0.018963208         0.05    5.0569021 0.0088449503     98.86805    9946.3373 
   43800    391.51646    0.3310768     2.784829  0.018963208         0.05    5.1168297 0.0088158784    97.805642    9944.9119 
   43900    392.40711   0.33228169    2.7901763  0.018963208         0.05    5.1797889  0.009125898    96.710491    9943.7405 
   44000     393.3087   0.33156654    2.7966397  0.018963208         0.05     5.244745 0.0090104596    97.516735     9942.384 
   44100    394.19496   0.33203376    2.8021016  0.018963208         0.05    5.2625004 0.0089269294    96.098685     9941.357 
   44200    395.06801   0.33177055    2.8075269  0.018963208         0.05    5.5782051 0.0087361198    97.134441    9940.0899 
   44300     396.0127    0.3309168    2.8136496  0.018963208         0.05    5.4514767 0.0088721481    98.836109    9938.4416 
   44400     396.9049   0.33221526    2.8193402  0.018963208         0.05     5.415136  0.008874429    96.912831    9937.2283 
   44500    397.75179   0.33217631    2.8250107  0.018963208         0.05    5.4998252 0.0078433189    96.815254    9936.0381 
   44600    398.53582   0.33245593    2.8295494  0.018963208         0.05    5.5782281 0.0078265525    96.179559    9934.9949 
   44700    399.31958   0.33195406    2.8346753  0.018963208         0.05    5.7157445 0.0084832579    98.361211    9933.4588 
   44800    400.08185   0.33200158    2.8399423  0.018963208         0.05    6.3346847 0.0075347718    98.308785    9931.9366 
   44900    400.81568   0.33045502     2.844987  0.018963208         0.05    6.5876274 0.0074495379     97.86509    9930.5148 
   45000    401.56827   0.33205935     2.849992  0.018963208         0.05    6.5286855 0.0074802755    97.757543    9929.1186 
   45100     402.3234   0.33051959    2.8548953  0.018963208         0.05    5.9889571 0.0081268619    96.520697    9928.0016 
   45200    403.13625   0.33176896    2.8605313  0.018963208         0.05    6.0405486 0.0080520618    97.184675    9926.7354 
   45300    403.93173   0.33040522    2.8667959  0.018963208         0.05    5.1308797 0.0077491414    97.324264    9925.4392 
   45400    404.70522   0.33081929    2.8720321  0.018963208         0.05    5.7982381 0.0077022898    96.265009    9924.3819 
   45500     405.4775   0.32984991    2.8765693  0.018963208         0.05     5.885598 0.0084737583    96.723114    9923.2215 
   45600    406.31552   0.33050645    2.8820418  0.018963208         0.05    5.9445085 0.0083323627    96.522496    9922.1066 
   45700    407.18791   0.33142274    2.8881222  0.018963208         0.05    5.5885049 0.0087880946    98.666801    9920.5218 
   45800     408.0608   0.33108723    2.8935829  0.018963208         0.05    5.6760629 0.0086572031    96.187786    9919.4837 
   45900    408.88757   0.33036463    2.8994855  0.018963208         0.05    6.0593428 0.0078609105    96.506373    9918.3744 
   46000    409.67016    0.3298882    2.9049521  0.018963208         0.05    6.1787135 0.0077088079    94.141497    9917.8051 
   46100    410.45084   0.33170571     2.910058  0.018963208         0.05    5.5878426 0.0084243344    97.449445    9916.4877 
   46200    411.29447   0.33095216    2.9158181  0.018963208         0.05    5.6962998  0.008384142    97.095023    9915.2488 
   46300    412.13724   0.33102763    2.9215137  0.018963208         0.05    5.2110526  0.008562289    96.875741    9914.0588 
   46400    412.99035    0.3317439    2.9264399  0.018963208         0.05    5.2956768 0.0084930593     95.39538    9913.1988 
   46500    413.83436   0.33076203    2.9314912  0.018963208         0.05    5.3800784 0.0085196781    95.192125    9912.3838 
   46600    414.68039   0.33098594    2.9360993  0.018963208         0.05    5.5035966 0.0083695067    96.049391    9911.3759 
   46700    415.49158   0.33134989    2.9412626  0.018963208         0.05    4.8661088 0.0082275266    97.249391    9910.1057 
   46800    416.33768    0.3314106    2.9455579  0.018963208         0.05     5.240823  0.008662857    97.527007    9908.7769 
   46900    417.17407    0.3310611    2.9497775  0.018963208         0.05     5.318752 0.0079488869    97.711699    9907.4101 
   47000    417.96687   0.33024277    2.9549433  0.018963208         0.05    5.3987311 0.0079023005    94.728987     9906.698 
   47100      418.754   0.33061728    2.9590652  0.018963208         0.05    5.5517575  0.007852301    96.370691    9905.6207 
   47200    419.54614   0.33071516    2.9626543  0.018963208         0.05    5.6273956 0.0081318649     97.50837    9904.2992 
   47300     420.3621   0.32974375    2.9671269  0.018963208         0.05    5.7265662 0.0081288656    97.710925    9902.9361 
   47400    421.16612   0.32979794     2.971522  0.018963208         0.05    5.7962721 0.0079841934    95.326152    9902.0889 
   47500    421.96691   0.33042328     2.975726  0.018963208         0.05    4.6944329 0.0079752608    98.788364    9900.5037 
   47600    422.75977   0.32974051     2.980823  0.018963208         0.05    5.7531917 0.0081914426    96.084926    9899.4908 
   47700    423.58305   0.32993375    2.9851784  0.018963208         0.05     5.719317  0.008289903    96.531982    9898.3815 
   47800    424.40778   0.33053279    2.9899179  0.018963208         0.05    5.7980237 0.0081898727    95.683796    9897.4554 
   47900    425.22208    0.3312372    2.9948626  0.018963208         0.05    5.8837744 0.0080844243    95.435427    9896.5829 
   48000    426.02519   0.32995965     2.998995  0.018963208         0.05    5.9793246  0.007939567    94.497593    9895.9159 
   48100     426.8043   0.32933387    3.0031126  0.018963208         0.05    6.1144564 0.0077939494     96.01076    9894.9173 
   48200    427.58098   0.33065091    3.0071393  0.018963208         0.05    6.1630173 0.0077262475    95.199017    9894.0938 
   48300    428.34936   0.33029992    3.0106767  0.018963208         0.05    6.2427771 0.0076136274    95.571404    9893.1888 
   48400    429.09591   0.33108791    3.0144449  0.018963208         0.05    4.6994717 0.0075141083    96.261298    9892.1357 
   48500    429.85092   0.32968728    3.0192692  0.018963208         0.05    5.1801937 0.0076249676     97.03067    9890.9211 
   48600    430.61088   0.33120501    3.0236368  0.018963208         0.05    5.2310371 0.0075636231    96.315543     9889.857 
   48700     431.3646   0.32960919    3.0272554  0.018963208         0.05    4.7369595 0.0074981548    96.376626    9888.7802 
   48800    432.11349   0.33094067     3.031124  0.018963208         0.05    4.7794387 0.0074701753    95.976202    9887.7879 
   48900    432.85789   0.33019621    3.0349029  0.018963208         0.05    4.8487937 0.0074109676    96.108749    9886.7675 
   49000    433.59421    0.3295245    3.0396557  0.018963208         0.05    4.9811781 0.0073141511     94.99933    9885.9828 
   49100    434.38304   0.32953217    3.0444337  0.018963208         0.05    6.1244778  0.008126777    95.692594    9885.0494 
   49200    435.23094   0.32853405     3.049464  0.018963208         0.05    4.9989145 0.0085458201    96.618461    9883.9219 
   49300    436.08575   0.32864483    3.0540584  0.018963208         0.05    5.0613964 0.0085398815     97.01202    9882.7139 
   49400    436.93667   0.32967263     3.058958  0.018963208         0.05    4.5705692 0.0085129867    96.656379    9881.5796 
   49500    437.85586   0.32992145    3.0648073  0.018963208         0.05    4.7233046 0.0093527054    95.723453    9880.6393 
   49600    438.78737   0.33003198    3.0700065  0.018963208         0.05    4.5274169  0.009255727    95.903016    9879.6611 
   49700    439.70655   0.33044674    3.0763121  0.018963208         0.05    4.7347781 0.0091921866    96.818919     9878.494 
   49800    440.62602    0.3304639    3.0815732  0.018963208         0.05    4.9443217 0.0095188161     96.60651    9877.3708 
   49900    441.56742   0.32907803    3.0876874  0.018963208         0.05    5.0788543 0.0093094912     96.16485    9876.3384 
   50000    442.48511   0.33002092    3.0934657  0.018963208         0.05    5.5362986 0.0086687956    95.058473    9875.5361 
   50100    443.38822   0.33141043    3.0992947  0.018963208         0.05    5.3433617 0.0091861201    95.914244    9874.5547 
   50200    444.30085   0.33084252    3.1054629  0.018963208         0.05     5.428669 0.0090468456    96.049941    9873.5452 
   50300    445.19889   0.33137446    3.1115225  0.018963208         0.05    5.5224834 0.0088938309    96.200935    9872.5048 
   50400    446.08227   0.33002514    3.1168797  0.018963208         0.05    5.5979398 0.0087675693    95.686263    9871.5697 
   50500    446.95408   0.33117011    3.1227746  0.018963208         0.05    5.6763574 0.0086490294    96.767677    9870.4145 
   50600     447.8119   0.33019681    3.1292694  0.018963208         0.05     5.787981 0.0084820552    96.216383     9869.371 
   50700    448.65547   0.33034017    3.1343445  0.018963208         0.05    5.9365202 0.0082859965    96.115135    9868.3479 
   50800    449.50877   0.33011137    3.1405914  0.018963208         0.05    5.7154966 0.0086881164    98.681611    9866.8192 
   50900    450.37043   0.33102802    3.1468422  0.018963208         0.05     5.797212  0.008544745     95.77425    9865.8662 
   51000    451.20996   0.33064114     3.153313  0.018963208         0.05    5.9655319 0.0080933561    95.073298     9865.056 
   51100    452.03589   0.33110702    3.1588624  0.018963208         0.05    5.5963754 0.0084751432    97.297172    9863.7984 
   51200    452.91378   0.33186337    3.1641028  0.018963208         0.05    4.8995691 0.0088322514    97.109253    9862.5786 
   51300    453.80746   0.33192803    3.1704199  0.018963208         0.05    4.9189028 0.0091403243    96.224903    9861.5345 
   51400    454.68365    0.3324681    3.1763418  0.018963208         0.05    5.0207091 0.0084029814    97.214341    9860.2953 
   51500    455.50285   0.33156262    3.1826222  0.018963208         0.05    5.1487688 0.0081728515    97.595722    9858.9828 
   51600    456.31724   0.33202628    3.1886802  0.018963208         0.05    5.2770586 0.0081028954    95.798466    9858.0248 
   51700    457.11971   0.33130925    3.1936712  0.018963208         0.05    5.4103681 0.0079579892    96.516255    9856.9241 
   51800    457.89795   0.33292672    3.1988572  0.018963208         0.05    4.7455702 0.0077432414    97.574108     9855.618 
   51900    458.67268   0.33133938     3.204421  0.018963208         0.05    5.0580695 0.0077441363     98.09326    9854.2138 
   52000    459.44695   0.33051581    3.2103643  0.018963208         0.05    5.1495585 0.0077179805    96.855116    9853.0488 
   52100     460.2697   0.33168596    3.2149568  0.018963208         0.05    5.2988992 0.0087399544    96.500777    9851.9532 
   52200    461.14454   0.33071909    3.2210055  0.018963208         0.05    5.8260128 0.0085789664    97.738157    9850.6197 
   52300    461.99765   0.33119279    3.2271073  0.018963208         0.05     5.898118 0.0084730929    95.741151     9849.674 
   52400    462.83954    0.3319697    3.2318618  0.018963208         0.05    5.9824631 0.0083538374    95.675546    9848.7409 
   52500    463.66969   0.33084017     3.237336  0.018963208         0.05    6.0763315 0.0082234377    95.971327    9847.7493 
   52600    464.48966   0.32984562    3.2428185  0.018963208         0.05    6.1665014 0.0081044244     96.79032    9846.5987 
   52700    465.32642   0.33183036     3.248343  0.018963208         0.05    5.9327168 0.0083987384    98.228364    9845.1766 
   52800     466.1614    0.3311141    3.2547317  0.018963208         0.05    6.0121814 0.0082874562    95.872413    9844.2048 
[...]
  493600    4105.0168   0.33051531    26.445975  0.018963208         0.05    5.7677076 0.0086548724    90.966237    5451.0585 
  493700    4105.8703   0.33105228    26.451646  0.018963208         0.05    5.8286993 0.0082553432    89.924087    5450.0185 
  493800    4106.7132   0.33003574    26.456952  0.018963208         0.05    5.9003066 0.0084542157    90.006504    5448.9776 
  493900    4107.5534   0.32918101    26.462334  0.018963208         0.05    5.9835887 0.0083378228    86.073041    5447.9886 
  494000     4108.382    0.3311035    26.467071  0.018963208         0.05    6.0664528 0.0082244231    86.388602    5446.9952 
  494100    4109.1995   0.33027088    26.471852  0.018963208         0.05    6.1475494 0.0081161581    88.544476    5445.9729 
  494200    4109.9936   0.32990257    26.477508  0.018963208         0.05    6.2298016 0.0080094098    89.246986    5444.9414 
  494300    4110.7888   0.33145033    26.481775  0.018963208         0.05    6.3535881 0.0078505748    88.718393    5443.9167 
  494400    4111.5552   0.33061899     26.48579  0.018963208         0.05    6.5869905 0.0075691979    88.576077    5442.8939 
  494500    4112.3055   0.33113378    26.490747  0.018963208         0.05    6.6054337 0.0075674543    89.860163    5441.8545 
  494600    4113.0623   0.33102171     26.49568  0.018963208         0.05     6.637994 0.0075291939    89.685216    5440.8173 
  494700    4113.8118   0.33109959    26.500899  0.018963208         0.05    6.7083136 0.0074501548    88.632997    5439.7935 
  494800    4114.5531   0.33089723     26.50581  0.018963208         0.05    6.7824468  0.007368794    88.958154    5438.7656 
  494900    4115.2862    0.3315934    26.509633  0.018963208         0.05    6.8582594 0.0072875706    88.913705    5437.7381 
  495000    4116.0114   0.33064657    26.514016  0.018963208         0.05    6.9487999 0.0071914381    87.240023    5436.7327 
  495100    4116.7204   0.33190126    26.518037  0.018963208         0.05    7.2298877 0.0068919923    90.070868    5435.6904 
  495200    4117.4168   0.33040188    26.522728  0.018963208         0.05    7.1566345 0.0069621389    90.080424     5434.648 
  495300    4118.1092   0.32924883    26.526503  0.018963208         0.05     7.265408 0.0068721731    88.729091    5433.6228 
  495400    4118.7907   0.32931739    26.531278  0.018963208         0.05    7.0872304 0.0069639842    90.889754    5432.5703 
  495500    4119.4871   0.33050301    26.535637  0.018963208         0.05    7.1143371 0.0069329354    89.501398    5431.5351 
  495600    4120.1775   0.33012435    26.540211  0.018963208         0.05    7.1833731 0.0068680726    89.312911    5430.5023 
  495700    4120.8536   0.33055051    26.544285  0.018963208         0.05    7.3099926 0.0066714468    90.007953    5429.4606 
  495800    4121.5182   0.33075712    26.548486  0.018963208         0.05    7.3751285  0.006615407    89.416795    5428.4264 
  495900    4122.1773   0.33186929    26.553316  0.018963208         0.05    7.4426497 0.0065575474    88.499338     5427.404 
  496000    4122.8216   0.33167674    26.557711  0.018963208         0.05    7.7136181 0.0063971475    89.625021    5426.3671 
  496100    4123.4615   0.32975483    26.562177  0.018963208         0.05    5.5311163 0.0063296314    89.205189    5425.3355 
  496200    4124.1016   0.33154507    26.566384  0.018963208         0.05    5.5701769  0.006396923    90.341894    5424.2895 
  496300    4124.7382   0.33067737    26.571006  0.018963208         0.05    5.7075183 0.0062646995    88.822177    5423.2627 
  496400    4125.4056    0.3309684    26.576247  0.018963208         0.05    6.3083636 0.0078989079    91.003737    5422.2085 
  496500    4126.2076   0.33025053    26.582324  0.018963208         0.05    6.1724938 0.0080606523    91.219151    5421.1517 
  496600    4127.0093   0.33015225    26.587704  0.018963208         0.05     6.249743 0.0079636178    88.646991    5420.1271 
  496700    4127.7996   0.33110092    26.593183  0.018963208         0.05    6.3359022 0.0078550048    88.870243    5419.0995 
  496800    4128.5735   0.33202259    26.599294  0.018963208         0.05    6.5764712  0.007528423    88.073592    5418.0823 
  496900    4129.3293   0.33106462    26.605316  0.018963208         0.05      6.53088 0.0075136869    90.025707    5417.0401 
  497000    4130.0841   0.33060455     26.61085  0.018963208         0.05    6.5467445 0.0075404144    89.564716    5416.0036 
  497100    4130.8344   0.33112067    26.616747  0.018963208         0.05    6.6228463 0.0074559608    88.509591    5414.9805 
  497200    4131.5764   0.33204945    26.621712  0.018963208         0.05    6.6973125 0.0073755549    88.153114    5413.9621 
  497300    4132.3109   0.33239192    26.627029  0.018963208         0.05    6.7677763 0.0073012134    88.314486    5412.9415 
  497400    4133.0331   0.33263144    26.632291  0.018963208         0.05    6.7927841 0.0072461545    90.420498    5411.8942 
  497500    4133.7617   0.33185693    26.637602  0.018963208         0.05    5.5499786 0.0074530366    90.120857    5410.8506 
  497600    4134.5065   0.33074152    26.642718  0.018963208         0.05    5.8497318 0.0074250614    89.376039    5409.8163 
  497700    4135.2449    0.3320532    26.647904  0.018963208         0.05    5.8722007 0.0073877724    88.617679    5408.7916 
  497800     4135.982   0.33106238    26.653747  0.018963208         0.05    5.9484655 0.0073289876     88.66365    5407.7663 
  497900    4136.7082   0.33143241    26.658435  0.018963208         0.05     5.174515 0.0067691615     88.85761    5406.7385 
  498000    4137.3835   0.33070976    26.662452  0.018963208         0.05     5.236152 0.0067958962     89.45072    5405.7031 
  498100      4138.06   0.33083284    26.666947  0.018963208         0.05     5.301412 0.0067020632    88.329477     5404.682 
  498200     4138.738    0.3314943    26.671319  0.018963208         0.05    5.3648794 0.0075380404    90.750679    5403.6304 
  498300    4139.4945   0.33081299    26.676385  0.018963208         0.05    5.4892073 0.0076025441    90.508809    5402.5817 
  498400    4140.2353   0.33122877    26.682062  0.018963208         0.05     6.438027 0.0073311201    90.550917    5401.5326 
  498500    4140.9716   0.33158121    26.686433  0.018963208         0.05    6.4857068 0.0073440642    90.240898    5400.4872 
  498600    4141.7024   0.33186883    26.691064  0.018963208         0.05    6.5473431  0.007270141    88.471225     5399.464 
  498700    4142.4248   0.33156284    26.695028  0.018963208         0.05    6.7476395 0.0070956113    88.164213    5398.4448 
  498800    4143.2217   0.33092632    26.700058  0.018963208         0.05    5.1044577 0.0078555621    89.525201    5397.4083 
  498900    4143.9901   0.33043454     26.70565  0.018963208         0.05    5.1138176 0.0077128663    89.573553     5396.371 
  499000    4144.7544   0.33256849    26.710228  0.018963208         0.05    5.1939651 0.0072728767     88.90351    5395.3422 
  499100    4145.5305   0.33160806    26.715353  0.018963208         0.05    5.2850827 0.0084926448    89.919633    5394.3006 
  499200    4146.4084   0.33180753    26.720769  0.018963208         0.05    5.3766897 0.0090188677    90.491937     5393.252 
  499300    4147.3057   0.33131604    26.725978  0.018963208         0.05    5.4639826 0.0087933657    88.859568    5392.2236 
  499400    4148.1868   0.33175979    26.732041  0.018963208         0.05    5.5520988 0.0089322565    91.220818     5391.166 
  499500    4149.0738    0.3307666    26.737988  0.018963208         0.05    5.6406543 0.0087948626    88.496687    5390.1422 
  499600    4149.8864   0.33184662    26.742225  0.018963208         0.05     6.001884 0.0078491163    89.399604     5389.107 
  499700    4150.6673   0.33092239    26.747412  0.018963208         0.05    6.0752133 0.0077608638    88.850909    5388.0786 
  499800    4151.4387   0.33130649    26.752367  0.018963208         0.05    6.1720685 0.0076101817    89.130046    5387.0466 
  499900    4152.2017   0.33145535    26.756174  0.018963208         0.05    5.8957109 0.0076491214    90.656743    5385.9958 
  500000    4152.9661   0.32985876    26.760758  0.018963208         0.05    6.0049252 0.0076125272    89.387791    5384.9605 
  500100    4153.7237   0.32991578     26.76454  0.018963208         0.05    6.0848026 0.0075272505     87.99665    5383.9429 
  500200    4154.4742   0.33050551    26.769444  0.018963208         0.05    6.1306933 0.0074749671    90.566833     5382.893 
  500300    4155.2128    0.3315584    26.773965  0.018963208         0.05    6.4442373 0.0072397143    89.002722    5381.8625 
  500400    4155.9355   0.33078313    26.778467  0.018963208         0.05    6.5211421 0.0071948304    88.933161    5380.8328 
  500500    4156.6476   0.33123755    26.782412  0.018963208         0.05    6.5078937 0.0071229475    89.093847    5379.8011 
  500600     4157.356    0.3315518    26.787222  0.018963208         0.05    6.4308644  0.007075192    89.796677    5378.7606 
  500700    4158.0921   0.33198719    26.792393  0.018963208         0.05    5.8993862 0.0076966753    89.946572    5377.7182 
  500800    4158.8592   0.33206385     26.79736  0.018963208         0.05     5.818213   0.00763004    89.040132     5376.687 
  500900    4159.6496   0.33236121    26.801936  0.018963208         0.05    5.8992271 0.0078751433    89.842667    5375.6458 
  501000    4160.4367    0.3328406    26.807128  0.018963208         0.05    5.9690842 0.0077486615    88.985633    5374.6153 
  501100    4161.2211   0.33223093     26.81217  0.018963208         0.05    6.0428801 0.0078403123    88.442813    5373.5915 
  501200    4162.0017   0.33260712    26.816931  0.018963208         0.05    6.1318426  0.007799388    89.110447    5372.5594 
  501300    4162.7858    0.3323991     26.82192  0.018963208         0.05     6.226571 0.0079415545    89.957259    5371.5166 
  501400    4163.5748    0.3310298    26.827355  0.018963208         0.05     6.399342 0.0077335135    89.092484    5370.4846 
  501500    4164.3625   0.33123401    26.832046  0.018963208         0.05    6.0689989 0.0079713892    89.646706    5369.4456 
  501600    4165.1882    0.3316925    26.837065  0.018963208         0.05    5.1923276 0.0083437085    91.424904    5368.3851 
  501700    4166.0165   0.33258285    26.842547  0.018963208         0.05    5.4640364 0.0081754055    88.757124    5367.3572 
  501800    4166.8305   0.33040114    26.847998  0.018963208         0.05    5.6886221 0.0080918876    89.693021    5366.3175 
  501900    4167.6356   0.33056207    26.853295  0.018963208         0.05     5.781324 0.0080020514    88.682509    5365.2905 
  502000    4168.4317   0.33052927    26.858703  0.018963208         0.05     5.860776 0.0078822628    87.484547    5364.2787 
  502100    4169.2182   0.33079444    26.864545  0.018963208         0.05    5.4581057 0.0078334463    88.491197     5363.254 
  502200    4170.0192   0.33118053     26.86973  0.018963208         0.05    5.5557253 0.0084142063    89.129099    5362.2212 
  502300    4170.8565   0.33246203    26.875441  0.018963208         0.05     5.524445 0.0079061317    92.127593    5361.1522 
  502400    4171.6402   0.33011294    26.881243  0.018963208         0.05    5.6346298 0.0078111254    89.346662    5360.1167 
  502500    4172.4189   0.33155618    26.885785  0.018963208         0.05    5.7125114 0.0076518128    88.795362     5359.088 
  502600    4173.2261   0.33143309    26.891087  0.018963208         0.05    5.5059212 0.0085242406    89.818137    5358.0466 
  502700    4174.0402    0.3322139    26.896288  0.018963208         0.05    5.8373687 0.0080391243    89.562631    5357.0083 
  502800    4174.8474   0.33078747    26.901005  0.018963208         0.05    5.9186521 0.0081692043    88.502307    5355.9832 
  502900    4175.6591   0.33170619     26.90562  0.018963208         0.05    6.0375383 0.0080290527    89.147532    5354.9499 
  503000    4176.4621   0.33054353    26.910029  0.018963208         0.05    6.0955901 0.0081210145     89.15875    5353.9165 
  503100    4177.2702   0.33080445    26.914778  0.018963208         0.05    6.1340241 0.0080276041    87.846057    5352.8996 
  503200    4178.0647   0.33082766    26.919646  0.018963208         0.05    5.5983285 0.0081193443    90.017998    5351.8556 
  503300    4178.8811   0.33050627    26.924739  0.018963208         0.05    5.7367621 0.0081393275    89.660848    5350.8159 
  503400    4179.6919   0.33226803     26.92991  0.018963208         0.05    5.7885657 0.0080908119    88.666949    5349.7884 
  503500       4180.5   0.33154217    26.933671  0.018963208         0.05    5.8695989 0.0080478092    89.940034    5348.7453 
  503600    4181.3001   0.33051702    26.938482  0.018963208         0.05    5.9499783 0.0080182998    88.673847    5347.7177 
  503700    4182.1138   0.33158343    26.943682  0.018963208         0.05    6.3021761 0.0078539236    89.491945    5346.6799 
  503800    4182.9386   0.32999296    26.949002  0.018963208         0.05    5.2027335 0.0084951145    90.218848    5345.6332 
  503900     4183.784   0.33121651    26.954263  0.018963208         0.05    5.3504714 0.0084033387     88.77762    5344.6043 
  504000    4184.6192   0.33132088    26.959655  0.018963208         0.05     5.174153 0.0083098247    88.829269    5343.5746 
  504100    4185.4286   0.33063357     26.96481  0.018963208         0.05    5.1701565 0.0077922322    88.930239    5342.5436 
  504200    4186.2051   0.33183291    26.969013  0.018963208         0.05    5.2462415 0.0077315255    88.712952    5341.5154 
  504300    4186.9752   0.33084687    26.973571  0.018963208         0.05    5.3192914  0.007667775     88.66946    5340.4876 
  504400    4187.7382   0.33183586     26.97802  0.018963208         0.05    5.4289103 0.0074673948    88.730368     5339.459 
  504500     4188.553   0.33169721      26.9843  0.018963208         0.05    5.1390106 0.0082073443    89.990051    5338.4149 
  504600    4189.3634   0.33101835    26.989394  0.018963208         0.05     5.219128 0.0080784862    89.557258     5337.376 
  504700     4190.169   0.33122393    26.994265  0.018963208         0.05    5.2996857 0.0080251968    88.504193    5336.3501 
  504800    4190.9643   0.33211433    26.998834  0.018963208         0.05    5.5536076 0.0080192729    89.763469    5335.3087 
  504900    4191.7633   0.33111025    27.004391  0.018963208         0.05    5.0726297 0.0079566482    88.530814    5334.2824 
  505000    4192.5524   0.33217159    27.009687  0.018963208         0.05    5.1124429 0.0081941766    88.306231    5333.2589 
  505100     4193.419   0.33144072    27.015201  0.018963208         0.05    5.2498615 0.0091138515    89.827736    5332.2166 
  505200    4194.3133   0.33046741    27.020852  0.018963208         0.05    5.3508569  0.008862636    90.372435    5331.1677 
  505300    4195.1945   0.33075835    27.026671  0.018963208         0.05    5.5054147 0.0085752483    88.344919    5330.1436 
  505400    4196.0617   0.33168592    27.031632  0.018963208         0.05    5.5703707 0.0087282579    89.724335    5329.1024 
  505500    4196.9283   0.33139948    27.037788  0.018963208         0.05    5.7733463 0.0085195751    90.084565    5328.0568 
  505600    4197.7908    0.3302542    27.042575  0.018963208         0.05    5.7452538 0.0086841458    90.875378    5327.0018 
  505700    4198.6475   0.33172991    27.048109  0.018963208         0.05    5.8298936 0.0085458413    90.416736    5325.9522 
  505800     4199.491   0.33154121    27.053213  0.018963208         0.05     5.914846 0.0084503383    89.091538    5324.9187 
  505900    4200.3214    0.3301886    27.057729  0.018963208         0.05    6.0686979 0.0077968928    90.105601    5323.8728 
  506000    4201.1346   0.33064855    27.061973  0.018963208         0.05     6.141716 0.0081220553    87.943328    5322.8535 
  506100    4201.9272   0.33086431    27.066995  0.018963208         0.05    5.7920884 0.0074031098    89.425679    5321.8157 
  506200    4202.6644   0.33126742    27.070721  0.018963208         0.05    5.8661768  0.007331696    89.001381    5320.7832 
  506300    4203.3884   0.33007057    27.074901  0.018963208         0.05    6.2825866 0.0071847887    90.373428    5319.7339 
  506400    4204.1047   0.33189213    27.078639  0.018963208         0.05    6.3431758 0.0071276219    88.831395    5318.7034 
  506500    4204.8233   0.33180132     27.08324  0.018963208         0.05    5.5157371 0.0076680338     89.58199    5317.6636 
  506600    4205.5772   0.33069188    27.087447  0.018963208         0.05     5.704056 0.0074793605    88.150224    5316.6415 
  506700    4206.3154   0.33011256    27.092225  0.018963208         0.05    5.9641162 0.0073261654    89.363033    5315.6043 
  506800    4207.0457   0.33120613     27.09618  0.018963208         0.05    6.0725709 0.0071969028    88.739792    5314.5748 
  506900    4207.7569   0.32961415    27.100605  0.018963208         0.05    6.2731142 0.0072000852    90.055784    5313.5292 
  507000    4208.4733    0.3316362    27.104616  0.018963208         0.05    6.2524934 0.0072828816    88.015226    5312.5086 
  507100    4209.3062   0.33135023    27.108847  0.018963208         0.05    5.9434402 0.0083908629    89.500672    5311.4696 
  507200    4210.1337    0.3296833    27.113552  0.018963208         0.05    6.1008057 0.0081797906    88.830699    5310.4388 
  507300    4210.9833   0.33006984    27.117512  0.018963208         0.05    5.2802678  0.009008965    90.437909    5309.3885 
  507400     4211.877   0.32909371    27.123259  0.018963208         0.05    5.2146931  0.008778058    89.387944    5308.3508 
  507500    4212.7706   0.33005526     27.12809  0.018963208         0.05    5.2698431 0.0089151579    89.569153    5307.3108 
  507600    4213.6389   0.32998556    27.133745  0.018963208         0.05    5.5159949 0.0084462815    89.406007    5306.2729 
  507700    4214.4979   0.33117431    27.139495  0.018963208         0.05    5.4107983 0.0090980002    89.960906    5305.2282 
  507800    4215.4022   0.33056291    27.144866  0.018963208         0.05    5.5699324 0.0089075247    89.841839    5304.1848 
  507900    4216.2976   0.33188324    27.150699  0.018963208         0.05    5.4083802  0.008916071    89.227962    5303.1489 
  508000    4217.1842   0.33101542    27.156089  0.018963208         0.05    5.4962196 0.0088463229    89.982271    5302.1039 
  508100    4218.0527   0.33073839    27.161901  0.018963208         0.05    5.6037133 0.0085915779    89.470335     5301.065 
  508200    4218.9301   0.33118573    27.166795  0.018963208         0.05    5.2663236 0.0093085833    89.711765    5300.0231 
  508300    4219.8539   0.33086848    27.171721  0.018963208         0.05     5.161448  0.009141396    89.369088    5298.9854 
  508400    4220.7615   0.33133709    27.176528  0.018963208         0.05    5.2713812 0.0089919968    89.809098    5297.9423 
  508500    4221.6357   0.33054921    27.181656  0.018963208         0.05    5.4885429 0.0081747398    89.069724    5296.9081 
  508600    4222.4678   0.33095134     27.18608  0.018963208         0.05    5.3832064 0.0083948204    92.256026    5295.8364 
  508700     4223.297   0.32944555    27.191303  0.018963208         0.05    4.9573076 0.0082815084    89.144349    5294.8013 
  508800    4224.1266   0.32946968    27.195585  0.018963208         0.05    5.0931692 0.0087598488    89.518953    5293.7616 
  508900    4225.0042    0.3303752    27.200108  0.018963208         0.05    5.1855351   0.00934197     90.72624    5292.7075 
  509000      4225.94   0.33022945    27.205901  0.018963208         0.05    5.2391064 0.0089687283    89.584534     5291.667 
  509100    4226.8485   0.33081967    27.211358  0.018963208         0.05    4.9762165 0.0091747478    89.951356     5290.622 
  509200    4227.7572   0.33033623    27.217495  0.018963208         0.05    4.9698372 0.0089315893    90.256045    52