#package gpu 1
#suffix gpu
# variable rho equal 0.03

units lj
atom_style atomic

lattice fcc 0.975
Lattice spacing in x,y,z = 1.60085 1.60085 1.60085
region box block 0 60 0 30 0 30
create_box 2 box
Created orthogonal box = (0 0 0) to (96.0513 48.0256 48.0256)
  1 by 1 by 1 MPI processor grid
create_atoms 1 box
Created 216000 atoms
  Time spent = 0.0403709 secs
mass 1 4.0
mass 2 0.5


pair_style lj/cut 2.5
pair_coeff 1 1 1.0 1.0 2.5
pair_coeff 2 2 0.5 0.88 2.5
pair_coeff 1 2 0.2 1.0 2.5
#pair_coeff 1 2 1.5 0.8 2.5
pair_modify mix geometric
neigh_modify every 1 delay 0 check yes

variable R equal 12
region cylinder1 cylinder x $(0.5*ly) $(0.5*lz) $R EDGE EDGE units box
region cylinder1 cylinder x 24.012813670346833561 $(0.5*lz) $R EDGE EDGE units box
region cylinder1 cylinder x 24.012813670346833561 24.012813670346833561 $R EDGE EDGE units box
region cylinder1 cylinder x 24.012813670346833561 24.012813670346833561 12 EDGE EDGE units box

group cylinder1 region cylinder1
41820 atoms in group cylinder1
variable V equal PI*v_R*v_R*lx
# variable rho equal 0.1
variable natoms equal $V*${rho}
variable natoms equal 43452.5639148185*${rho}
variable natoms equal 43452.5639148185*0.01
variable natoms_in_cylinder equal count(cylinder1)
variable delete_fraction equal (${natoms_in_cylinder}-${natoms})/${natoms_in_cylinder}
variable delete_fraction equal (41820-${natoms})/${natoms_in_cylinder}
variable delete_fraction equal (41820-434.525639148185)/${natoms_in_cylinder}
variable delete_fraction equal (41820-434.525639148185)/41820
set group cylinder1 type 2
  41820 settings made for type
delete_atoms porosity cylinder1 ${delete_fraction} 12345
delete_atoms porosity cylinder1 0.989609621254228 12345
Deleted 41392 atoms, new total = 174608

region cylinder2 cylinder x $(0.5*ly) $(0.5*lz) $(v_R+6) EDGE EDGE units box
region cylinder2 cylinder x 24.012813670346833561 $(0.5*lz) $(v_R+6) EDGE EDGE units box
region cylinder2 cylinder x 24.012813670346833561 24.012813670346833561 $(v_R+6) EDGE EDGE units box
region cylinder2 cylinder x 24.012813670346833561 24.012813670346833561 18 EDGE EDGE units box
region cylinder3 cylinder x $(0.5*ly) $(0.5*lz) $(v_R+9) EDGE EDGE units box
region cylinder3 cylinder x 24.012813670346833561 $(0.5*lz) $(v_R+9) EDGE EDGE units box
region cylinder3 cylinder x 24.012813670346833561 24.012813670346833561 $(v_R+9) EDGE EDGE units box
region cylinder3 cylinder x 24.012813670346833561 24.012813670346833561 21 EDGE EDGE units box
group cylinder2 region cylinder2
54428 atoms in group cylinder2
group cylinder3 region cylinder3
88268 atoms in group cylinder3

group nve region cylinder3
88268 atoms in group nve
group langevin subtract cylinder3 cylinder2
33840 atoms in group langevin
group frozen subtract all cylinder3
86340 atoms in group frozen

region force cylinder x $(0.5*ly) $(0.5*lz) $(v_R-1) EDGE EDGE units box
region force cylinder x 24.012813670346833561 $(0.5*lz) $(v_R-1) EDGE EDGE units box
region force cylinder x 24.012813670346833561 24.012813670346833561 $(v_R-1) EDGE EDGE units box
region force cylinder x 24.012813670346833561 24.012813670346833561 11 EDGE EDGE units box
group gas type 2
428 atoms in group gas

fix nve nve nve
fix langevin langevin langevin 0.50 0.50 1.0 12345 zero yes

variable gascount equal count(gas)

variable dP equal 0.001
variable force equal v_dP/v_rho

velocity all create 0.1 87287
velocity frozen set 0 0 0

compute chunk all chunk/atom bin/cylinder x lower $(lx) $(0.5*ly) $(0.5*lz) 0 $(v_R+3) 80 units box
compute chunk all chunk/atom bin/cylinder x lower 96.051254681387334244 $(0.5*ly) $(0.5*lz) 0 $(v_R+3) 80 units box
compute chunk all chunk/atom bin/cylinder x lower 96.051254681387334244 24.012813670346833561 $(0.5*lz) 0 $(v_R+3) 80 units box
compute chunk all chunk/atom bin/cylinder x lower 96.051254681387334244 24.012813670346833561 24.012813670346833561 0 $(v_R+3) 80 units box
compute chunk all chunk/atom bin/cylinder x lower 96.051254681387334244 24.012813670346833561 24.012813670346833561 0 15 80 units box

compute displacement nve displace/atom
compute mean_displacement nve reduce ave c_displacement[4]

compute vmax all reduce max vx
variable volume equal count(gas)/v_V

thermo_style custom step time temp c_mean_displacement v_volume v_force c_vmax dt spcpu cpuremain
thermo 100

compute keAtom all ke/atom
dump dump all custom 1000 trajectory_l.bin id type x y z c_keAtom

fix flow gas addforce v_force 0.0 0.0
run 5000
No /omp style for force computation currently active
Per MPI rank memory allocation (min/avg/max) = 85.71 | 85.71 | 85.71 Mbytes
Step Time Temp c_mean_displacement v_volume v_force c_vmax Dt S/CPU CPULeft 
       0            0  0.050571752            0 0.0098498215          0.1    0.7745455        0.005            0            0 
     100          0.5  0.065117405  0.054774938 0.0098498215          0.1    1.2034124        0.005    145.46726    33.684556 
     200            1  0.094856098  0.088199197 0.0098498215          0.1    1.6070286        0.005    147.51893    32.767679 
     300          1.5   0.11017257   0.12637773 0.0098498215          0.1    1.6964618        0.005    146.19969    32.105965 
     400            2   0.12245462   0.15916783 0.0098498215          0.1     1.740311        0.005    147.10683    31.384581 
     500          2.5   0.12977641   0.18845152 0.0098498215          0.1    1.9309767        0.005    146.75281    30.694608 
     600            3   0.13440985   0.20532633 0.0098498215          0.1    1.9525933        0.005    146.90568    30.002279 
     700          3.5   0.14079103   0.20542823 0.0098498215          0.1    2.0315905        0.005    145.08017    29.365892 
     800            4   0.14853292   0.19283231 0.0098498215          0.1    2.4424183        0.005    146.28781    28.686414 
     900          4.5   0.15516776   0.17197296 0.0098498215          0.1     2.583411        0.005    146.31521    28.005437 
    1000            5   0.15961596   0.14739072 0.0098498215          0.1    2.2655391        0.005    145.69186     27.33566 
    1100          5.5   0.16312798   0.12652706 0.0098498215          0.1    2.3655391        0.005    137.32002    26.811224 
    1200            6   0.16591527   0.11550935 0.0098498215          0.1    2.4655391        0.005     143.1252    26.159295 
    1300          6.5    0.1688619   0.11385548 0.0098498215          0.1    2.5655391        0.005    144.54061    25.480696 
    1400            7   0.17164084    0.1172835 0.0098498215          0.1    2.6655391        0.005    143.34904     24.81499 
    1500          7.5   0.17537201   0.12172759 0.0098498215          0.1    2.7655391        0.005    144.50202    24.132047 
    1600            8    0.1795004   0.12565228 0.0098498215          0.1    2.8655391        0.005    143.27241    23.460591 
    1700          8.5   0.18462776   0.12928089 0.0098498215          0.1    3.0094883        0.005    139.48481    22.822804 
    1800            9   0.18898965   0.13474349 0.0098498215          0.1    2.8720574        0.005    139.43093    22.176716 
    1900          9.5   0.19402586   0.14227465 0.0098498215          0.1    3.0878369        0.005    136.50347    21.548239 
    2000           10   0.19817701   0.15283915 0.0098498215          0.1    3.8104039        0.005    135.65191    20.916249 
    2100         10.5   0.20160445   0.16540214 0.0098498215          0.1    3.3047546        0.005    135.98633    20.271737 
    2200           11   0.20354228   0.17739159 0.0098498215          0.1      3.46564        0.005    138.81331    19.599905 
    2300         11.5   0.20494881   0.18631904 0.0098498215          0.1     3.752671        0.005    137.71584    18.930591 
    2400           12   0.20658736   0.19057678 0.0098498215          0.1    4.1483128        0.005    137.48273    18.257875 
    2500         12.5   0.20738635   0.19167412 0.0098498215          0.1    3.8672203        0.005    137.11159    17.582756 
    2600           13   0.20965121   0.18942714 0.0098498215          0.1    3.9672203        0.005    137.57482    16.901199 
    2700         13.5   0.21099186   0.18567917 0.0098498215          0.1    4.0672203        0.005    139.17808    16.209154 
    2800           14   0.21234071   0.18134672 0.0098498215          0.1    4.1672203        0.005    134.16247    15.536323 
    2900         14.5   0.21388954   0.17880245 0.0098498215          0.1    4.2672203        0.005     135.1249    14.854646 
    3000           15   0.21430569   0.17849159 0.0098498215          0.1    4.3672203        0.005    133.12867    14.176474 
    3100         15.5   0.21545191   0.18080212 0.0098498215          0.1    4.4672203        0.005    135.78027    13.484603 
    3200           16   0.21742572   0.18524278 0.0098498215          0.1    4.5672203        0.005    135.74599    12.790049 
    3300         16.5   0.21946613   0.19113449 0.0098498215          0.1    4.6672203        0.005    133.56023    12.099153 
    3400           17   0.22231358   0.19777188 0.0098498215          0.1    4.7754131        0.005    136.29158    11.397794 
    3500         17.5   0.22362801   0.20445914 0.0098498215          0.1    5.1178273        0.005    133.30134    10.701639 
    3600           18   0.22594595   0.21067974 0.0098498215          0.1    4.8681265        0.005    137.16706    9.9942616 
    3700         18.5    0.2277277   0.21714078 0.0098498215          0.1    4.8723185        0.005    136.58571     9.286803 
    3800           19   0.22884047   0.22458315 0.0098498215          0.1    5.2352953        0.005    135.58551    8.5797515 
    3900         19.5   0.23110747   0.23174213 0.0098498215          0.1    5.1635257        0.005    134.34502    7.8730568 
    4000           20   0.23172066   0.23940142 0.0098498215          0.1    5.1955017        0.005    131.68309     7.168241 
    4100         20.5   0.23210754    0.2474869 0.0098498215          0.1    5.3659106        0.005    129.93628    6.4630036 
    4200           21   0.23363672   0.25417203 0.0098498215          0.1    5.9908912        0.005      134.924    5.7492819 
    4300         21.5   0.23386193   0.25992824 0.0098498215          0.1    6.0015918        0.005    129.09356    5.0397333 
    4400           22    0.2345562   0.26436472 0.0098498215          0.1    5.4454206        0.005    129.37129    4.3269997 
    4500         22.5   0.23538474   0.26763975 0.0098498215          0.1    5.5454206        0.005    128.57436    3.6121212 
    4600           23   0.23589821   0.27004538 0.0098498215          0.1    5.6929939        0.005    132.76349    2.8923747 
    4700         23.5   0.23671574   0.27257862 0.0098498215          0.1    5.7551134        0.005    134.28696    2.1706586 
    4800           24   0.23727834   0.27638831 0.0098498215          0.1    5.8920833        0.005    131.68255    1.4485994 
    4900         24.5     0.237703   0.28166137 0.0098498215          0.1    5.9475183        0.005    133.76746   0.72477453 
    5000           25   0.23849023    0.2876639 0.0098498215          0.1    6.0475183        0.005    128.40334            0 
Loop time of 36.2928 on 4 procs for 5000 steps with 174608 atoms

Performance: 59515.993 tau/day, 137.769 timesteps/s
242.8% CPU use with 1 MPI tasks x 4 OpenMP threads

MPI task timing breakdown:
Section |  min time  |  avg time  |  max time  |%varavg| %total
---------------------------------------------------------------
Pair    | 15.227     | 15.227     | 15.227     |   0.0 | 41.96
Neigh   | 0.26915    | 0.26915    | 0.26915    |   0.0 |  0.74
Comm    | 3.8459     | 3.8459     | 3.8459     |   0.0 | 10.60
Output  | 0.1324     | 0.1324     | 0.1324     |   0.0 |  0.36
Modify  | 13.702     | 13.702     | 13.702     |   0.0 | 37.75
Other   |            | 3.117      |            |       |  8.59

Nlocal:    174608 ave 174608 max 174608 min
Histogram: 1 0 0 0 0 0 0 0 0 0
Nghost:    66627 ave 66627 max 66627 min
Histogram: 1 0 0 0 0 0 0 0 0 0
Neighs:    0 ave 0 max 0 min
Histogram: 1 0 0 0 0 0 0 0 0 0

Total # of neighbors = 0
Ave neighs/atom = 0
Neighbor list builds = 642
Dangerous builds = 0

reset_timestep 0
fix vx all ave/chunk 10 100000 1000000 chunk vx ave running file velocity_l.txt

fix dt all dt/reset 10 NULL NULL 0.05 units box

run 1000000
No /omp style for force computation currently active
Per MPI rank memory allocation (min/avg/max) = 95.09 | 95.09 | 95.09 Mbytes
Step Time Temp c_mean_displacement v_volume v_force c_vmax Dt S/CPU CPULeft 
       0           25   0.23849023    0.2876639 0.0098498215          0.1    6.0475183  0.007543324            0            0 
     100    25.766928   0.23940266   0.29779045 0.0098498215          0.1    6.3106007  0.007723104    111.62236     8957.892 
     200    26.533912   0.24070979   0.30728916 0.0098498215          0.1    6.6247951 0.0073744872    111.75593     8951.634 
     300    27.292562   0.24267451   0.31653137 0.0098498215          0.1    6.5758563 0.0075878921    113.58899    8900.8387 
     400    28.008114   0.24371775   0.32549289 0.0098498215          0.1    6.9171208 0.0070127597    115.65507    8835.6966 
     500    28.703893   0.24512263   0.33441439 0.0098498215          0.1    6.9820849 0.0068916602    113.31458    8831.9656 
     600    29.365385    0.2461755   0.34445511 0.0098498215          0.1     7.120204 0.0063590253    113.83404    8822.4767 
     700     29.99718   0.24591378    0.3535332 0.0098498215          0.1     7.246563 0.0062683989    112.51808    8830.1129 
     800    30.620071   0.24643666   0.36162161 0.0098498215          0.1    7.3711411  0.006181262    110.95024    8851.3082 
     900    31.234397   0.24735018   0.36856348 0.0098498215          0.1    7.4940064 0.0060974085    112.94278    8849.9377 
    1000    31.844904   0.24729605   0.37394013 0.0098498215          0.1    7.6161078 0.0065466394    109.84425    8873.6153 
    1100    32.493474   0.24846829   0.37935543 0.0098498215          0.1    7.7417095 0.0063590814    112.50453    8873.2749 
    1200    33.131095   0.24912744   0.38573227 0.0098498215          0.1    7.8692336 0.0063375217    114.13116     8862.299 
    1300    33.760341   0.24940961   0.39278477 0.0098498215          0.1    7.9950829 0.0062382641    112.32924    8863.6745 
    1400    34.379869   0.24900215   0.40037056 0.0098498215          0.1    8.1189884 0.0061435237    110.54232    8874.9918 
    1500    34.990113   0.24914645   0.40769198 0.0098498215          0.1    8.2410372 0.0060529683     110.7302    8883.6564 
    1600    35.590637   0.24966406   0.41412071 0.0098498215          0.1    8.3074291 0.0059871406    114.01091    8874.9104 
    1700     36.18478   0.25129569   0.41986855 0.0098498215          0.1    8.4241291 0.0059048819    114.40392    8865.3204 
    1800    36.771213   0.25173134    0.4259972 0.0098498215          0.1    8.5768681 0.0058063769    113.59286    8860.1596 
    1900    37.349217   0.25178811   0.43300762 0.0098498215          0.1    8.6779252 0.0057399126    114.26937    8852.7115 
    2000    37.919832   0.25266209   0.43987821 0.0098498215          0.1    8.8013851 0.0056596382     111.5439    8856.5908 
    2100    38.477444    0.2533892   0.44681822 0.0098498215          0.1    9.0069875 0.0055179753    111.53459    8860.0504 
    2200    39.023661   0.25402994   0.45381628 0.0098498215          0.1    8.4103081 0.0053982709    112.52518    8859.5351 
    2300    39.560922   0.25420033   0.45985786 0.0098498215          0.1    8.4760614  0.005337413    111.37431    8862.9703 
    2400    40.092259   0.25368844   0.46559692 0.0098498215          0.1    8.5909874 0.0052840294    112.46571    8862.4223 
    2500    40.618271   0.25456902   0.47051165 0.0098498215          0.1    8.6961898 0.0052311697    112.48758    8861.7788 
    2600    41.139063   0.25375101   0.47511706 0.0098498215          0.1    8.8004397 0.0051796876    112.85076    8860.0189 
    2700     41.65448   0.25512993   0.47970616 0.0098498215          0.1    8.9112754 0.0051067105    112.98032    8857.9476 
    2800    42.174121   0.25349347   0.48482556 0.0098498215          0.1    8.8737563 0.0052108886    113.81458    8853.6508 
    2900    42.720496   0.25513153   0.48881501 0.0098498215          0.1    8.8883575 0.0055620708    114.04498    8848.9795 
    3000    43.274838   0.25382873   0.49384876 0.0098498215          0.1    8.8389073 0.0055340473    113.52387    8845.8988 
    3100    43.828135   0.25381596   0.49896348 0.0098498215          0.1    9.0575493 0.0055110031     111.9094    8847.0466 
    3200    44.379454    0.2541497   0.50421203 0.0098498215          0.1    9.0072389 0.0055153479    112.82684    8845.8031 
    3300    44.928767   0.25465479   0.50920272 0.0098498215          0.1     9.134469 0.0054678626    114.02287     8841.774 
    3400    45.474087   0.25385621   0.51490364 0.0098498215          0.1     9.188688 0.0054364297     115.7118    8834.1775 
    3500    46.014871   0.25537135   0.51975877 0.0098498215          0.1    9.2968448  0.005373299    112.16006     8834.758 
    3600    46.548691   0.25513525   0.52503815 0.0098498215          0.1    9.4036089 0.0052538813    111.62931    8836.4297 
    3700    47.075958   0.25579233   0.53006421 0.0098498215          0.1    9.5101407 0.0052531348    112.64192    8835.7942 
    3800     47.59869   0.25600957   0.53497102 0.0098498215          0.1    9.6146871 0.0051961085    110.46904    8839.7233 
    3900    48.115802   0.25597589   0.53945091 0.0098498215          0.1    9.7181095 0.0051408996     113.2035    8837.8196 
    4000    48.629514   0.25663535   0.54395742 0.0098498215          0.1    9.5458818 0.0051461692    111.71911    8838.8894 
    4100    49.142044   0.25588347    0.5483897 0.0098498215          0.1    9.6354553 0.0050999944    109.27923    8844.7178 
    4200    49.650006   0.25610082   0.55225093 0.0098498215          0.1    9.7370476 0.0050549004    112.34681     8844.301 
    4300    50.148831     0.257017   0.55590489 0.0098498215          0.1    9.8399746 0.0048129511    112.74847     8843.128 
    4400    50.628824   0.25640041   0.55925173 0.0098498215          0.1    10.090334 0.0047820948    112.76651    8841.9358 
    4500    51.105237   0.25592737    0.5625697 0.0098498215          0.1    10.170719 0.0046919235    112.20186    8841.7445 
    4600    51.591832   0.25599149   0.56602806 0.0098498215          0.1    10.268038 0.0048662658    113.81872     8838.783 
    4700    52.075077   0.25532491   0.56940545 0.0098498215          0.1    10.364687 0.0048209476    113.73215    8836.0519 
    4800    52.555173   0.25578764    0.5734074 0.0098498215          0.1    10.460811 0.0047766977    113.86225    8833.1895 
    4900    53.030898   0.25707087   0.57772461 0.0098498215          0.1    10.555933  0.004733703    113.67331    8830.7046 
    5000    53.502376   0.25597507   0.58204101 0.0098498215          0.1    10.650229 0.0046918433     111.9821    8830.9278 
    5100    53.969717   0.25599841   0.58599715 0.0098498215          0.1    10.743697 0.0046510748    113.42612    8828.8895 
    5200    54.433004   0.25754826   0.58988773 0.0098498215          0.1    10.838138 0.0046103898     113.1387    8827.3241 
    5300     54.89256   0.25661335   0.59405129 0.0098498215          0.1     10.92131 0.0045750637    113.18645    8825.7145 
    5400    55.348179     0.256461   0.59795664 0.0098498215          0.1    11.017962 0.0045353315    113.34655    8823.9018 
    5500    55.800047   0.25661997   0.60213071 0.0098498215          0.1    11.108335 0.0044984772    110.72126    8825.9056 
    5600    56.248261   0.25713539   0.60592395 0.0098498215          0.1    11.198894 0.0044621425    113.92999    8823.2884 
    5700    56.692891   0.25710978   0.61025854 0.0098498215          0.1    11.287914 0.0044270138    113.04938    8821.9253 
    5800    57.134041   0.25668391   0.61423195 0.0098498215          0.1    11.375101 0.0043929718    112.41564    8821.4334 
    5900    57.571597   0.25747637   0.61820965 0.0098498215          0.1    11.498524 0.0043452044    113.47197    8819.5325 
    6000    58.004064    0.2570339   0.62208098 0.0098498215          0.1    11.589757 0.0043096871    111.97382    8819.6194 
    6100    58.433574   0.25734626   0.62553212 0.0098498215          0.1    11.673684 0.0042776554    110.75778    8821.2714 
    6200    58.859641   0.25667558   0.62915971 0.0098498215          0.1    11.760454 0.0042425521      111.888    8821.3793 
    6300     59.32073   0.25668915   0.63249765 0.0098498215          0.1    8.8071384 0.0053975953    115.36511    8817.2064 
    6400    59.857893   0.25747482   0.63632507 0.0098498215          0.1    8.9130834 0.0053394575    111.66834    8817.5919 
    6500    60.389312   0.25748359   0.64077001 0.0098498215          0.1    9.0159985 0.0052835889    112.79234    8816.5738 
    6600    60.915164   0.25743473   0.64468247 0.0098498215          0.1    9.1219937 0.0052290832    111.57304    8817.0182 
    6700    61.435638   0.25683606   0.64861769 0.0098498215          0.1    9.2256403 0.0051752062    111.12073    8817.9634 
    6800    61.950012   0.25663354   0.65274778 0.0098498215          0.1    9.3078732 0.0050903313    111.11693     8818.859 
    6900    62.466246    0.2566108   0.65679506 0.0098498215          0.1    8.4456198 0.0052056963    116.10344    8814.1393 
    7000    62.984507   0.25692626   0.66018285 0.0098498215          0.1    8.5515375 0.0051382155    111.86833    8814.1552 
    7100     63.54779   0.25705449   0.66427151 0.0098498215          0.1    8.7081283 0.0056791434    113.50906    8812.3388 
    7200    64.117939   0.25625755   0.66898075 0.0098498215          0.1    8.1219246 0.0057404748     114.7065    8809.2803 
    7300    64.694658   0.25689581   0.67369415 0.0098498215          0.1    8.2510469 0.0057339058    111.15768    8810.0664 
    7400    65.228489   0.25670234   0.67754763 0.0098498215          0.1    8.2664654 0.0051772713    114.12606    8807.6684 
    7500    65.743468    0.2573948   0.68138051 0.0098498215          0.1    8.3211256 0.0051220294    113.87357     8805.568 
    7600    66.265224   0.25799228   0.68464558 0.0098498215          0.1    7.9550307 0.0054265493    116.09129    8801.3094 
    7700     66.80798   0.25697075   0.68842878 0.0098498215          0.1    8.0924495 0.0054248825    115.18892    8798.0085 
    7800     67.34997   0.25676392   0.69189888 0.0098498215          0.1    8.2004946 0.0054135218    110.23596    8799.7317 
    7900    67.890765   0.25773303   0.69474813 0.0098498215          0.1     8.304125 0.0054005316    112.39251    8799.2025 
    8000    68.430294   0.25824554    0.6982604 0.0098498215          0.1    8.5312346  0.005372123    111.35896    8799.6883 
    8100    68.990046   0.25790163   0.70154631 0.0098498215          0.1    8.6609405 0.0056432527    113.30188    8798.2541 
    8200    69.552545   0.25759783   0.70558398 0.0098498215          0.1    8.6993992 0.0056032056    114.34307    8795.8614 
    8300     70.10981   0.25710641   0.70960545 0.0098498215          0.1    8.8116781  0.005534765    111.28471     8796.377 
    8400    70.660101   0.25756534   0.71360401 0.0098498215          0.1    8.8155878 0.0055190167    113.14151     8795.118 
    8500     71.21833   0.25737339   0.71762106 0.0098498215          0.1    6.9578144 0.0056833657    114.09676    8793.0046 
    8600    71.783948   0.25638548   0.72109982 0.0098498215          0.1    7.0616132 0.0055931356    114.22686    8790.8051 
    8700    72.344492   0.25737658   0.72506652 0.0098498215          0.1    7.2266558 0.0054909998    113.67303    8789.1219 
    8800     72.89445   0.25721959   0.72855016 0.0098498215          0.1    7.3382784 0.0055139866    114.35866     8786.863 
    8900    73.441431   0.25772761   0.73158793 0.0098498215          0.1    7.4954971 0.0061778507    114.56485    8784.4598 
    9000    74.049241   0.25722356   0.73616782 0.0098498215          0.1    7.8524853 0.0060222593    110.80676    8785.3504 
    9100    74.647428   0.25746823   0.74106884 0.0098498215          0.1    7.9753594 0.0059353351    112.10673    8785.0621 
    9200    75.237065   0.25696083   0.74626759 0.0098498215          0.1    7.9236261 0.0059355622    113.94583    8783.2101 
    9300    75.827237   0.25788392   0.75055818 0.0098498215          0.1    8.0398132 0.0058595766    111.74298    8783.2221 
    9400    76.409821   0.25743384   0.75493088 0.0098498215          0.1    8.1563298 0.0057850882    112.34867    8782.7064 
    9500    76.985076   0.25702753   0.75899779 0.0098498215          0.1    8.2713809 0.0057132619    112.88733    8781.7399 
    9600    77.553263   0.25743433   0.76343283 0.0098498215          0.1    8.3850183 0.0056439468    112.84032    8780.8133 
    9700    78.114626   0.25818142   0.76730753 0.0098498215          0.1    8.4972909 0.0055770035     111.4482    8781.0175 
    9800    78.669394   0.25724948   0.77203384 0.0098498215          0.1    8.6089061 0.0055113878    110.96979    8781.5902 
    9900    79.217526    0.2577211   0.77587057 0.0098498215          0.1    8.7201334 0.0054276485    111.02822    8782.0857 
   10000    79.758751   0.25754141   0.77988002 0.0098498215          0.1    7.1785246 0.0053643813    113.23593    8780.8148 
   10100    80.293908   0.25861458   0.78367636 0.0098498215          0.1    7.3139149 0.0053374676    112.27719    8780.2907 
   10200     80.82637    0.2573629   0.78829705 0.0098498215          0.1    7.2292168  0.005309327    113.43873    8778.8744 
   10300    81.356218   0.25676607    0.7927589 0.0098498215          0.1    7.3351863 0.0052847536    112.69219    8778.0296 
   10400    81.895163    0.2566507   0.79776942 0.0098498215          0.1    7.3788583  0.006006851    114.83206    8775.6105 
   10500    82.475641   0.25748278   0.80247617 0.0098498215          0.1    7.4674817 0.0057981961    119.01547    8770.3363 
   10600    83.053035   0.25844512   0.80765607 0.0098498215          0.1    7.5777697 0.0057250415    115.16637    8767.7669 
   10700     83.62587   0.25749778   0.81319422 0.0098498215          0.1    7.7126448 0.0057392259    115.20509    8765.2024 
   10800    84.200535   0.25779457   0.81787106 0.0098498215          0.1    7.8220128 0.0056976103    115.37898    8762.5495 
   10900    84.807133   0.25844957   0.82291254 0.0098498215          0.1    7.9433323 0.0060954389    112.23005     8762.136 
   11000    85.412936   0.25835891   0.82815073 0.0098498215          0.1    8.0555812 0.0060164675    110.18302    8763.2022 
   11100    86.010536   0.25810695   0.83284018 0.0098498215          0.1    8.1732171 0.0059304621    112.40085    8762.6374 
   11200    86.599981   0.25761013    0.8375911 0.0098498215          0.1    8.2931746 0.0058493348    112.87342    8761.7379 
   11300    87.181943   0.25800434   0.84198526 0.0098498215          0.1    7.5751224 0.0060871322    113.26427    8760.5711 
   11400    87.780588   0.25832694   0.84672635 0.0098498215          0.1    7.4298882 0.0059697065    113.47043    8759.2704 
   11500    88.389357   0.25943543   0.85073352 0.0098498215          0.1    7.0587823 0.0063086706    113.61686    8757.8792 
   11600    89.017658    0.2584551   0.85567438 0.0098498215          0.1    7.3515481  0.006236212    113.46782    8756.5953 
   11700     89.63744   0.25847455   0.86053216 0.0098498215          0.1    7.3997045 0.0061500403    112.49886    8755.9596 
   11800    90.248836   0.25842487    0.8655199 0.0098498215          0.1    7.4378651 0.0060685963    113.55144    8754.6294 
   11900    90.852185   0.25806167   0.87000173 0.0098498215          0.1    7.5217073 0.0060372875     113.1529    8753.5644 
   12000    91.452315   0.25746386   0.87535824 0.0098498215          0.1     7.663719 0.0061662718    112.34708    8753.0245 
   12100     92.05377   0.25555722   0.88049079 0.0098498215          0.1    7.7477094 0.0059620515    112.22828    8752.5554 
   12200    92.646543   0.25719129   0.88518598 0.0098498215          0.1    7.8029994 0.0058869237    113.31893    8751.3851 
   12300    93.231938   0.25727898   0.89050709 0.0098498215          0.1    7.9198192 0.0058136677    112.47937    8750.7486 
   12400    93.810068     0.257935   0.89590545 0.0098498215          0.1    8.0348514 0.0057413913    112.90262    8749.8424 
   12500    94.381171   0.25642654   0.90144628 0.0098498215          0.1    8.1459887 0.0056736035    112.82696    8748.9835 
   12600     94.94199   0.25895479   0.90531519 0.0098498215          0.1    8.2750552 0.0055279292    111.63306    8748.8669 
   12700    95.525201   0.25864516   0.90974789 0.0098498215          0.1    7.8995542 0.0059105415    115.15379    8746.6091 
   12800    96.113322   0.25952623   0.91389777 0.0098498215          0.1    8.0146028 0.0058453376    113.89676     8745.112 
   12900    96.694971   0.25876505   0.91870463 0.0098498215          0.1     8.203358 0.0057815341    112.73132    8744.3191 
   13000    97.270316   0.25858228   0.92291723 0.0098498215          0.1    8.3580899 0.0057194374    111.47524    8744.2837 
   13100    97.839024    0.2580504   0.92711919 0.0098498215          0.1    7.7609898 0.0056635151    114.19775    8742.6239 
   13200    98.416391   0.25787652   0.93125855 0.0098498215          0.1    7.8766955 0.0062974358    113.25849    8741.5189 
   13300    99.041681   0.25868466   0.93529061 0.0098498215          0.1    8.0056163  0.006198379    110.66526    8741.9522 
   13400     99.65716   0.25710022   0.94045845 0.0098498215          0.1    8.1287119 0.0061058978    112.20954    8741.4499 
   13500    100.26374   0.25848946   0.94453334 0.0098498215          0.1     8.250027 0.0060173962     111.6095    8741.2919 
   13600    100.86156   0.25802322   0.94951372 0.0098498215          0.1    8.3733118 0.0059299447    108.99551    8742.6816 
   13700    101.45085   0.25805719   0.95416027 0.0098498215          0.1    8.4925831 0.0058481946    112.02373    8742.2522 
   13800    102.06532    0.2586396   0.95905263 0.0098498215          0.1    7.5665273 0.0064347761    113.65239    8740.9018 
   13900    102.70419   0.25798265   0.96391649 0.0098498215          0.1    7.6946708 0.0063330281    111.02178    8741.0373 
   14000    103.33301   0.25758485   0.96927544 0.0098498215          0.1    7.8256888 0.0062321667    110.42245    8741.5022 
   14100    103.94373   0.25738224   0.97410544 0.0098498215          0.1    7.5490666 0.0062952834    113.78466    8740.0766 
   14200    104.57586   0.25868514   0.97822692 0.0098498215          0.1    7.6726009 0.0063017807    111.95125    8739.6579 
   14300    105.20249   0.25788917   0.98286293 0.0098498215          0.1    7.7995847 0.0062242781    110.65031    8739.9565 
   14400     105.8211   0.25798775   0.98717893 0.0098498215          0.1    7.8239877  0.006245038    112.36195    8739.2961 
   14500    106.44284   0.25869345   0.99144576 0.0098498215          0.1    7.9507163  0.006200135    111.27024     8739.226 
   14600    107.05868   0.25856797   0.99613073 0.0098498215          0.1    8.0738843  0.006108139    111.01047    8739.2865 
   14700    107.66496   0.25864449    1.0003303 0.0098498215          0.1     8.228459 0.0059972966    111.27618    8739.1897 
   14800    108.26401   0.25887382    1.0046426 0.0098498215          0.1    8.2555905  0.005964887    113.99322    8737.6563 
   14900    108.85419   0.25785843    1.0092753 0.0098498215          0.1    8.1822931 0.0059512392    113.57106    8736.3471 
   15000    109.45208     0.258024    1.0141438 0.0098498215          0.1    7.7261899 0.0059510423    112.41627    8735.6378 
   15100    110.04655   0.25799039     1.018518 0.0098498215          0.1    7.7416682 0.0059085339    111.62994    8735.3347 
   15200    110.63433   0.25858302    1.0221373 0.0098498215          0.1    7.8449433 0.0058383791    112.66897    8734.4886 
   15300    111.21339   0.25983684    1.0261862 0.0098498215          0.1    7.2491003 0.0058212618    111.82992    8734.0705 
   15400    111.79302   0.25886748    1.0309246 0.0098498215          0.1    7.4065959 0.0057662434    113.00074    8733.0538 
   15500    112.36703   0.25794544    1.0353944 0.0098498215          0.1    7.5213972 0.0056707104    111.09827    8733.0015 
   15600      112.942   0.25713291    1.0394577 0.0098498215          0.1    7.6252403 0.0057274225    113.10157    8731.9321 
   15700    113.51195    0.2577207    1.0429475 0.0098498215          0.1    7.7118974 0.0056613519    113.60139    8730.6213 
   15800    114.07517   0.25785942    1.0466567 0.0098498215          0.1    7.8237592 0.0056004517    112.36357    8729.9199 
   15900    114.63219   0.25890286    1.0512194 0.0098498215          0.1    7.9351633 0.0055360391      111.184    8729.8006 
   16000    115.18162   0.25868923    1.0553754 0.0098498215          0.1    8.0489765 0.0054435527    112.20726    8729.1671 
   16100    115.73649   0.25799882    1.0592937 0.0098498215          0.1    8.1599507   0.00552732    114.51355    8727.4335 
   16200    116.28655   0.25785614     1.063882 0.0098498215          0.1    8.2712969 0.0054680449    113.31779    8726.2702 
   16300    116.83072   0.25880713    1.0676935 0.0098498215          0.1    8.4026718  0.005408924    111.88361    8725.7929 
   16400    117.36842   0.25763404    1.0719789 0.0098498215          0.1    9.2165162 0.0052890886    110.95725    8725.7581 
   16500    117.93308   0.25813981    1.0757489 0.0098498215          0.1    8.6212798 0.0057868814    112.26835    8725.0855 
   16600    118.50832   0.25686714    1.0805096 0.0098498215          0.1    8.7363828 0.0057107769     111.5902    8724.7309 
   16700    119.07573   0.25741889    1.0846735 0.0098498215          0.1    8.8432021 0.0056491652    114.03016    8723.2407 
   16800    119.63824   0.25795143    1.0882438 0.0098498215          0.1    8.9449333 0.0055847147      111.717    8722.8206 
   16900    120.19306   0.25813351    1.0916843 0.0098498215          0.1    9.0808431 0.0054997902    114.12932    8721.2943 
   17000    120.74109   0.25798485    1.0959676 0.0098498215          0.1     9.156092 0.0054575863    114.31537    8719.6931 
   17100    121.28824   0.25840393     1.100122 0.0098498215          0.1    8.9870958 0.0055007564    109.70325    8720.2144 
   17200    121.83539    0.2579163    1.1043078 0.0098498215          0.1    9.0965247 0.0054360423    110.48761    8720.3491 
   17300    122.37616   0.25823059    1.1080427 0.0098498215          0.1    9.2046795 0.0053735446    113.60329     8719.062 
   17400    122.91078   0.25802303    1.1116517 0.0098498215          0.1    9.3116034 0.0053131399    113.03857    8718.0278 
   17500    123.43851   0.25792657    1.1152894 0.0098498215          0.1    9.4295638 0.0052575167    114.41331    8716.3985 
   17600    123.96418   0.25808639    1.1189787 0.0098498215          0.1    9.4578887 0.0052413291     113.7746    8715.0518 
   17700    124.48576   0.25764014    1.1231446 0.0098498215          0.1    9.5622063 0.0051851087    110.38964     8715.206 
   17800    125.00189   0.25731431    1.1270301 0.0098498215          0.1    9.6517051 0.0051363523    111.62845    8714.7935 
   17900    125.51313   0.25810342    1.1309527 0.0098498215          0.1     9.753953 0.0050834077    111.46956    8714.4458 
   18000    126.01913   0.25874441    1.1348334 0.0098498215          0.1    9.8554315 0.0050317938    108.56442    8715.4015 
   18100    126.51811   0.25907237    1.1387831 0.0098498215          0.1    9.7218775 0.0049629302    113.49487    8714.1658 
   18200     127.0131   0.25832175    1.1433583 0.0098498215          0.1    9.8050274 0.0049256158    113.93141    8712.7519 
   18300    127.50289   0.25851534    1.1475203 0.0098498215          0.1    9.9270351 0.0048587887    111.24064    8712.4828 
   18400      127.986   0.25833765    1.1510904 0.0098498215          0.1    9.9828533 0.0049465354    112.80915      8711.54 
   18500    128.48225   0.25828477    1.1549114 0.0098498215          0.1    7.4534906 0.0053574685     112.3593    8710.7861 
   18600    129.02013   0.25778707    1.1584269 0.0098498215          0.1    7.5806546  0.005384205    115.51759    8708.7468 
   18700     129.5561   0.25760009    1.1625834 0.0098498215          0.1    7.7292565 0.0055127172    113.64217    8707.4699 
   18800    130.10634   0.25818047    1.1668458 0.0098498215          0.1    7.6905644 0.0054835578    113.78015    8706.1414 
   18900    130.67817   0.25771506    1.1715445 0.0098498215          0.1    6.8857393 0.0059619468     114.6589     8704.468 
   19000    131.27394   0.25803099    1.1758512 0.0098498215          0.1    7.0048932 0.0059221581    113.87681    8703.1123 
   19100    131.88863   0.25712358    1.1806011 0.0098498215          0.1    7.0897477 0.0061719727    111.73994     8702.624 
   19200    132.50218   0.25798549     1.184905 0.0098498215          0.1    7.1773803 0.0060914543     111.2518    8702.3322 
   19300    133.10775   0.25813001    1.1900948 0.0098498215          0.1    7.3301313  0.005989074     112.9868    8701.3326 
   19400     133.7428   0.25768141    1.1949457 0.0098498215          0.1    6.8879311 0.0064105842    112.13214    8700.6753 
   19500    134.37985   0.25754801    1.1996907 0.0098498215          0.1    6.9090017 0.0063213405    111.81567    8700.1424 
   19600    135.00852   0.25886789    1.2038612 0.0098498215          0.1     7.192095  0.006360408    112.73856    8699.2396 
   19700    135.64026   0.25849976    1.2082334 0.0098498215          0.1    6.8645364 0.0062090057    112.69664    8698.3534 
   19800      136.295   0.25847218    1.2133236 0.0098498215          0.1    7.1508861 0.0066127443    111.63841    8697.8836 
   19900    136.94804   0.25803872    1.2181995 0.0098498215          0.1    7.2519379 0.0064523681    111.16422    8697.5977 
   20000    137.60007   0.25736951    1.2226326 0.0098498215          0.1    7.3492276 0.0067329031    113.81745    8696.2781 
   20100    138.26637   0.25921459    1.2267002 0.0098498215          0.1    7.4890147 0.0065986002    110.74748    8696.1502 
   20200    138.92472   0.25849734    1.2313138 0.0098498215          0.1    7.5163673 0.0065399039    114.51515    8694.5738 
   20300    139.56936   0.25826026    1.2362296 0.0098498215          0.1    7.6452962 0.0064871833     111.9109    8693.9849 
   20400    140.21418   0.25786027    1.2410758 0.0098498215          0.1    7.7742586 0.0064079301    115.25688    8692.1474 
   20500    140.85016    0.2579768    1.2456264 0.0098498215          0.1    7.9020624 0.0063091724    114.47727    8690.6017 
   20600    141.47574   0.25804181    1.2499954 0.0098498215          0.1    7.7397979 0.0062148373    110.94457    8690.3849 
   20700    142.09274   0.25843914    1.2543778 0.0098498215          0.1    7.8863915 0.0060968085    113.66696    8689.1402 
   20800     142.7003    0.2579727    1.2585863 0.0098498215          0.1    7.8465171 0.0060819711    113.33347    8688.0209 
   20900    143.30464    0.2593817    1.2631736 0.0098498215          0.1    7.9771545 0.0059900256    113.04238    8687.0102 
   21000    143.89805   0.25888229    1.2673879 0.0098498215          0.1    8.3388706 0.0058571457    110.52557      8686.94 
   21100    144.48038   0.25800873    1.2720665 0.0098498215          0.1    8.4680758 0.0057935886    112.88758    8685.9835 
   21200    145.05888   0.25895325    1.2763601 0.0098498215          0.1    8.2423362  0.005804676    113.84971     8684.682 
   21300    145.63611   0.25918595    1.2803433 0.0098498215          0.1    8.3688523 0.0057269177    110.04914    8684.7783 
   21400    146.20481   0.25987596    1.2839953 0.0098498215          0.1    8.3767415 0.0056489139    114.94544    8683.0952 
   21500    146.76705   0.25925527     1.288669 0.0098498215          0.1    8.4880147 0.0056061494    112.64661    8682.2277 
   21600    147.32445   0.25930017    1.2927632 0.0098498215          0.1    8.6070791 0.0055362065    111.41664    8681.8039 
   21700    147.87519   0.25835899    1.2971251 0.0098498215          0.1    8.7170325 0.0054726549    113.83453    8680.5162 
   21800    148.41956   0.25864957    1.3012136 0.0098498215          0.1    8.8475752 0.0053935058    112.36044    8679.7495 
   21900     148.9549   0.25965891    1.3052649 0.0098498215          0.1    7.9522774 0.0062774858    113.90118    8678.4439 
   22000    149.57826   0.25939033    1.3101259 0.0098498215          0.1    8.0769504 0.0061808903    111.69739    8677.9123 
   22100    150.19213   0.25831798    1.3150324 0.0098498215          0.1    8.2083425 0.0060821275    111.80118    8677.3406 
   22200    150.79555   0.25818909    1.3191919 0.0098498215          0.1    8.3437407 0.0059855163    112.30502    8676.5893 
   22300    151.39019   0.25975029    1.3224328 0.0098498215          0.1    8.4740467 0.0058938019    110.55147    8676.4559 
   22400    151.97634   0.25947196    1.3265497 0.0098498215          0.1    8.5749918 0.0058242695    111.10359    8676.1195 
   22500    152.55526   0.25912171    1.3311826 0.0098498215          0.1    8.6907753 0.0057468483    112.50731    8675.2902 
   22600    153.12707   0.25943984     1.335475 0.0098498215          0.1    8.7856053 0.0056839071    113.67953     8674.064 
   22700    153.68749   0.25919076    1.3395395 0.0098498215          0.1    8.8838174 0.0056052177    112.43484      8673.26 
   22800    154.24488   0.25902059    1.3439032 0.0098498215          0.1    8.9966052 0.0055352407    110.57642    8673.0961 
   22900     154.7954   0.25919187    1.3474723 0.0098498215          0.1    9.1069351 0.0054686941    110.70814    8672.8797 
   23000    155.33925   0.25868574     1.351115 0.0098498215          0.1    9.2089198 0.0054091224    111.32881    8672.4435 
   23100    155.87736   0.25768703    1.3549117 0.0098498215          0.1    9.3163093 0.0053471985    111.99412    8671.7775 
   23200    156.40905   0.25763052    1.3588913 0.0098498215          0.1    9.5694119 0.0052084259    110.12707     8671.747 
   23300    156.94982   0.25873463    1.3630635 0.0098498215          0.1    8.9266404 0.0054329933    116.41066    8669.6544 
   23400    157.49039   0.25959896    1.3666508 0.0098498215          0.1    9.0333653 0.0053722489    113.42226    8668.5169 
   23500    158.02869   0.25782452    1.3708217 0.0098498215          0.1    8.9176644 0.0055316599    112.93922    8667.5383 
   23600    158.57647   0.25877759    1.3753831 0.0098498215          0.1    8.9836379 0.0054366646    113.53392    8666.3686 
   23700    159.15177    0.2583739    1.3800479 0.0098498215          0.1    7.9841225 0.0060388561     114.4233    8664.9193 
   23800    159.75442   0.25772707    1.3847481 0.0098498215          0.1    8.1046288 0.0059993055    114.34582     8663.499 
   23900    160.34045   0.25761357    1.3893143 0.0098498215          0.1    8.2297822 0.0054205886    112.37763     8662.709 
   24000    160.87977   0.25849381    1.3932496 0.0098498215          0.1    8.3353254  0.005931169    112.21906    8661.9693 
   24100    161.47483   0.25819303      1.39827 0.0098498215          0.1    8.4543368 0.0059108581    112.70948    8661.0712 
   24200    162.06193   0.25818381    1.4027656 0.0098498215          0.1    8.5856579 0.0058196379    111.41004    8660.5906 
   24300    162.64048   0.25809717    1.4075704 0.0098498215          0.1    8.6990586  0.005743605    110.55089    8660.3866 
   24400    163.21147   0.25813032    1.4126117 0.0098498215          0.1    8.8147367 0.0056682611    113.61529    8659.2013 
   24500    163.77085   0.25806367    1.4169879 0.0098498215          0.1    9.0423572 0.0055283177    113.07959    8658.1845 
   24600    164.32229   0.25701836    1.4212635 0.0098498215          0.1    9.0602173 0.0055139348     115.1628    8656.5346 
   24700    164.87234   0.25689716     1.426027 0.0098498215          0.1    9.1309381 0.0054712326     114.2459    8655.1662 
   24800    165.41335   0.25692479    1.4304382 0.0098498215          0.1    9.1567258 0.0053744777    111.22318     8654.737 
   24900     165.9481   0.25827929    1.4344841 0.0098498215          0.1    9.2605949 0.0053154682    112.22413    8653.9902 
   25000    166.47701   0.25842304    1.4387108 0.0098498215          0.1    9.3663772 0.0052572538    109.52446    8654.0988 
   25100    167.00019   0.25854506    1.4427723 0.0098498215          0.1    9.4710121  0.005200893    111.23569    8653.6537 
   25200    167.52549    0.2578653    1.4471934 0.0098498215          0.1    9.5343737 0.0051744667    113.73822    8652.4398 
   25300    168.04032   0.25818226    1.4516287 0.0098498215          0.1    9.6665323 0.0050953404    113.43937    8651.3178 
   25400    168.55244   0.25725923    1.4564097 0.0098498215          0.1    9.6415627 0.0050514443    114.76077    8649.8082 
   25500    169.05943   0.25890203    1.4596884 0.0098498215          0.1    9.6232252 0.0050719626    115.68158    8648.0386 
   25600    169.56356   0.25940318    1.4634168 0.0098498215          0.1    9.7103723  0.004988091    113.24464    8646.9841 
   25700    170.06403   0.25861831    1.4679539 0.0098498215          0.1     8.824421 0.0049671605    116.40833    8645.0211 
   25800    170.55902   0.25873573    1.4717541 0.0098498215          0.1    8.9396631 0.0049278271    110.34155    8644.8502 
   25900    171.05001   0.25871716    1.4760323 0.0098498215          0.1    9.0230399 0.0048881818    111.29212    8644.3824 
   26000    171.53708   0.25793142    1.4806865 0.0098498215          0.1    9.1200966 0.0048493495    110.19055    8644.2478 
   26100    172.02029   0.25743265     1.484127 0.0098498215          0.1    9.2217947 0.0048113065    112.23672      8643.49 
   26200    172.49974   0.25909892    1.4874051 0.0098498215          0.1    9.3180678 0.0047740298    111.79629    8642.8615 
   26300    172.97547   0.25925244    1.4910951 0.0098498215          0.1    9.4132135 0.0047373151    112.02385    8642.1638 
   26400    173.44728   0.25931426    1.4942417 0.0098498215          0.1    9.5075757 0.0051393343    113.15033    8641.1369 
   26500    173.96249   0.25886664    1.4982028 0.0098498215          0.1    8.6836958 0.0057067261    113.56386    8639.9928 
   26600    174.52131   0.25925808    1.5020865 0.0098498215          0.1    8.7857233 0.0055881039     117.1789    8637.8566 
   26700    175.08127   0.25863648    1.5061912 0.0098498215          0.1    8.9052635 0.0055758644    116.27257    8635.9725 
   26800    175.63541   0.25771798    1.5100855 0.0098498215          0.1    9.0236771 0.0055039605    111.46769    8635.4423 
   26900    176.18282   0.25809094    1.5141492 0.0098498215          0.1     9.132983  0.005438232    113.49487    8634.3297 
   27000    176.72382   0.25812106    1.5185974 0.0098498215          0.1    9.2397949 0.0053765163     112.2429     8633.573 
   27100    177.25778    0.2583347    1.5219396 0.0098498215          0.1    9.3943872 0.0052784821    111.47723     8633.035 
   27200    177.78947   0.25744023    1.5255947 0.0098498215          0.1    9.4504128 0.0052483712     115.6353    8631.3407 
   27300    178.33503   0.25760413    1.5290405 0.0098498215          0.1    8.3141892 0.0057336305    116.38543    8629.4538 
   27400    178.90508   0.25754752    1.5332886 0.0098498215          0.1    8.4302786 0.0056612583    113.31844       8628.4 
   27500    179.44907   0.25868165    1.5369426 0.0098498215          0.1    7.8800247 0.0052397606    114.80594     8626.943 
   27600    179.97111   0.25884195    1.5402844 0.0098498215          0.1    7.8490097 0.0051968801     110.3049    8626.7426 
   27700     180.4889   0.25812138    1.5446742 0.0098498215          0.1    7.9415906 0.0051547822    112.00581    8626.0538 
   27800    181.00251   0.25825765    1.5484515 0.0098498215          0.1    8.0322621 0.0051132526    113.21743    8625.0293 
   27900    181.51414   0.25853046    1.5518914 0.0098498215          0.1    8.1377373 0.0050951959     114.5351    8623.6519 
   28000    182.02268   0.25882682    1.5557472 0.0098498215          0.1    8.0840849 0.0050726589    109.81334    8623.5813 
   28100    182.52842   0.25866026    1.5598125 0.0098498215          0.1    8.1847419  0.005038675    112.34783    8622.7942 
   28200    183.03077   0.25914606    1.5636169 0.0098498215          0.1    8.2802544 0.0050050776    113.27697    8621.7547 
   28300    183.52962   0.25844162    1.5674537 0.0098498215          0.1    8.3742002 0.0049680681    114.07891    8620.5032 
   28400    184.05975   0.25791169    1.5710651 0.0098498215          0.1    8.4813004 0.0058465834    112.98671    8619.5444 
   28500    184.64093   0.25746848    1.5758265 0.0098498215          0.1    8.5697005 0.0057804089    113.73977    8618.3862 
   28600    185.21564   0.25779734    1.5800009 0.0098498215          0.1     8.683038 0.0057067637    113.91727    8617.1835 
   28700    185.78309   0.25803372    1.5844076 0.0098498215          0.1    8.7955756 0.0056350816    112.27024    8616.4189 
   28800    186.34342    0.2585408    1.5892193 0.0098498215          0.1    8.9099263 0.0055641102    113.33356    8615.3716 
   28900    186.89653   0.25768818    1.5933072 0.0098498215          0.1    9.0400505 0.0054818375     114.4559    8614.0347 
   29000    187.44255    0.2576735    1.5976096 0.0098498215          0.1    9.1259677 0.0054279115    111.27594     8613.537 
   29100    187.98252   0.25848052     1.601616 0.0098498215          0.1    9.2339615 0.0053655857    112.21618    8612.7853 
   29200    188.51614   0.25801988    1.6059446 0.0098498215          0.1    9.3626269 0.0053035776    112.10799    8612.0613 
   29300    189.04626   0.25857735    1.6095173 0.0098498215          0.1    9.4233117 0.0052692561    113.54259    8610.9627 
   29400    189.57093   0.25858838    1.6125329 0.0098498215          0.1    9.5188811 0.0052159226    111.73869     8610.335 
   29500    190.09436   0.25874613      1.61596 0.0098498215          0.1    8.0116749 0.0052291732    111.73947    8609.7053 
   29600    190.61587   0.25845665    1.6191871 0.0098498215          0.1    8.4042287 0.0051946206    111.94988    8609.0187 
   29700    191.13362     0.258152    1.6227026 0.0098498215          0.1    7.7457355  0.005156568    111.04015    8608.5697 
   29800    191.64758   0.25891164    1.6255204 0.0098498215          0.1    7.9484496 0.0051190395     111.4344     8608.014 
   29900    192.15782    0.2586755    1.6291022 0.0098498215          0.1    7.9482374 0.0050820671    112.84071    8607.0931 
   30000    192.66438   0.25855255    1.6323424 0.0098498215          0.1    8.0998976 0.0050455819    112.25435    8606.3222 
   30100    193.18588   0.25824732    1.6361255 0.0098498215          0.1    7.4874419 0.0055105214    114.57405    8604.9693 
   30200      193.736   0.25752385    1.6397319 0.0098498215          0.1    7.6011077 0.0055155998    113.57521     8603.866 
   30300    194.28936   0.25822908    1.6434263 0.0098498215          0.1    7.7867443 0.0055392761    116.28082    8602.1086 
   30400    194.84415   0.25881373    1.6467814 0.0098498215          0.1    7.9139248 0.0055550877    116.01641    8600.4196 
   30500    195.40017   0.25853281    1.6503331 0.0098498215          0.1    8.0414322 0.0055593661    117.79853    8598.3215 
   30600    195.98179   0.25876593    1.6536663 0.0098498215          0.1    8.1609766 0.0058895528    111.96377    8597.6331 
   30700    196.57106    0.2586502    1.6578398 0.0098498215          0.1    8.4729854 0.0058881666    114.31303    8596.3637 
   30800    197.15507   0.25938593    1.6621225 0.0098498215          0.1    8.6119539 0.0058002948    113.74791    8595.2338 
   30900    197.73137   0.25792556    1.6663352 0.0098498215          0.1    8.7255855 0.0057176102     112.5481    8594.3993 
   31000    198.29894   0.25731543    1.6700851 0.0098498215          0.1    8.8106464 0.0056225907    112.07369    8593.6821 
   31100    198.88345   0.25749424    1.6742914 0.0098498215          0.1    7.8415095 0.0060165166    113.77586    8592.5479 
   31200    199.49303   0.25792985    1.6783586 0.0098498215          0.1    7.4135961   0.00594162     110.9719    8592.1049 
   31300    200.08433   0.25875346    1.6821781 0.0098498215          0.1    7.5575373 0.0058601326    110.61068    8591.7501 
   31400    200.66859   0.25667096     1.686213 0.0098498215          0.1    7.6577764 0.0058138647    112.81652    8590.8464 
   31500    201.24738   0.25942235    1.6898823 0.0098498215          0.1    7.8159853 0.0057562905    109.96985    8590.6484 
   31600    201.82028    0.2577741    1.6943558 0.0098498215          0.1    7.9325542 0.0056820721    111.12865    8590.1552 
   31700    202.41112   0.25817051    1.6979239 0.0098498215          0.1    8.0446735 0.0058881641    111.49652    8589.5688 
   31800    203.02295   0.25808864    1.7022111 0.0098498215          0.1    8.1670404 0.0060980641    112.27755    8588.7905 
   31900     203.6264   0.25729773    1.7062161 0.0098498215          0.1    8.2537595 0.0060214101    113.65676    8587.6835 
   32000    204.22624   0.25738015    1.7104663 0.0098498215          0.1    8.3478111 0.0059533129    113.51834    8586.6104 
   32100    204.81295   0.25803474    1.7145333 0.0098498215          0.1    8.5974531 0.0057977143    113.92349     8585.444 
   32200    205.38979   0.25774785    1.7185656 0.0098498215          0.1    8.7038046 0.0057263734    112.16963    8584.6919 
   32300    205.95793   0.25732299    1.7224796 0.0098498215          0.1    8.8363156 0.0056397954      111.457    8584.1098 
   32400    206.51873   0.25754201    1.7265821 0.0098498215          0.1    8.9484751 0.0055695637    111.10939    8583.6095 
   32500    207.07262   0.25706072    1.7310815 0.0098498215          0.1    9.0594975 0.0055017175    111.09668    8583.1098 
   32600     207.6182    0.2569704    1.7348539 0.0098498215          0.1    9.1869859 0.0054195526    114.02117    8581.9225 
   32700    208.15798   0.25838379    1.7389733 0.0098498215          0.1    9.2837962 0.0053636669    112.92864    8580.9882 
   32800    208.69151   0.25699702    1.7430355 0.0098498215          0.1    9.3888112 0.0053036714    113.52169    8579.9177 
   32900    209.21922   0.25645999    1.7470485 0.0098498215          0.1    9.4948069 0.0052450108    111.25959    8579.3749 
   33000    209.74117   0.25859839    1.7501795 0.0098498215          0.1    9.5988915 0.0051885866    110.33325     8579.051 
   33100    210.25663   0.25759605     1.754992 0.0098498215          0.1    9.7558246 0.0051120063    109.27541    8578.9799 
   33200    210.76457   0.25728265    1.7589918 0.0098498215          0.1    9.8824436 0.0050466342    112.00228    8578.2548 
   33300    211.27078   0.25852612    1.7629116 0.0098498215          0.1    9.7881534 0.0050755785    113.46923    8577.1938 
   33400    211.77564   0.25715256    1.7664901 0.0098498215          0.1     9.923465 0.0049982975    111.12694    8576.6713 
   33500    212.27349   0.25877655    1.7702192 0.0098498215          0.1    9.9248761 0.0049476603    111.71747    8576.0094 
   33600    212.77968   0.25727353    1.7743886 0.0098498215          0.1    8.5814796 0.0050506226    113.75463    8574.8851 
   33700     213.2831   0.25723157    1.7785244 0.0098498215          0.1    8.6821644 0.0050143199    113.21915    8573.8814 
   33800    213.78292   0.25776176     1.782051 0.0098498215          0.1     8.782128 0.0049785458    112.86947    8572.9566 
   33900    214.27918   0.25762001    1.7865827 0.0098498215          0.1    8.8912048 0.0049432953     111.6201    8572.3147 
   34000    214.77194   0.25854246     1.790194 0.0098498215          0.1    8.0792578 0.0049085337    112.09016    8571.5646 
   34100    215.26125   0.25791168    1.7939362 0.0098498215          0.1    8.1885896 0.0048743085    110.51337    8571.1741 
   34200    215.77419    0.2576985    1.7985643 0.0098498215          0.1    8.3169788 0.0057436628    111.50135    8570.5543 
   34300    216.34535   0.25872674    1.8027428 0.0098498215          0.1     8.431106 0.0056726914    112.51682    8569.7049 
   34400    216.90951   0.25859528    1.8072599 0.0098498215          0.1    8.5439379 0.0056040317    113.93181    8568.5455 
   34500    217.46643   0.25802664    1.8107827 0.0098498215          0.1    8.6591351  0.005496899      113.082    8567.5723 
   34600     218.0175   0.25888114    1.8149553 0.0098498215          0.1    8.2521675 0.0060261858    116.48075    8565.8797 
   34700    218.61441   0.25792102    1.8198779 0.0098498215          0.1    8.4293998 0.0058929572    112.40666    8565.0574 
   34800    219.20082   0.25786673    1.8248876 0.0098498215          0.1    8.5314475 0.0058220751    110.74406    8564.6053 
   34900    219.77952   0.25799057    1.8293544 0.0098498215          0.1    8.6539872 0.0057396216    112.13856      8563.84 
   35000    220.34881   0.25754673    1.8332289 0.0098498215          0.1    8.7025039 0.0056763238    113.13571    8562.8573 
   35100     220.9132   0.25801595    1.8369603 0.0098498215          0.1    8.8178565 0.0056029594    111.56693    8562.2168 
   35200    221.47035   0.25872029    1.8414626 0.0098498215          0.1    8.9243428 0.0055337658    113.69398    8561.1152 
   35300     222.0188   0.25793305    1.8458668 0.0098498215          0.1    9.0155963 0.0054316454    107.71197    8561.3499 
   35400    222.55754   0.25784835    1.8495242 0.0098498215          0.1    7.3280462 0.0053307908    112.78382    8560.4404 
   35500    223.08888   0.25856269    1.8532228 0.0098498215          0.1    7.1611754 0.0052921771    110.63697    8559.9984 
   35600    223.61657   0.25787363    1.8577258 0.0098498215          0.1    7.3424386 0.0052767173    114.63606    8558.6996 
   35700    224.17945   0.25839261    1.8616017 0.0098498215          0.1    7.4523002 0.0061780648    112.26369    8557.9012 
   35800    224.79234   0.25809417    1.8669303 0.0098498215          0.1    7.5789056 0.0060088309    111.49489    8557.2677 
   35900    225.43579   0.25755127    1.8718029 0.0098498215          0.1    7.7068927  0.006434466    113.55919    8556.1949 
   36000    226.07434   0.25823746    1.8761931 0.0098498215          0.1    7.8444035  0.006324709    111.25687    8555.6111 
   36100    226.70239   0.25874112    1.8806549 0.0098498215          0.1    7.9708315  0.006225783    110.88943     8555.105 
   36200    227.32057   0.25806108    1.8848152 0.0098498215          0.1    8.0971749 0.0061313206     111.6272    8554.4382 
   36300    227.92958   0.25790552    1.8900263 0.0098498215          0.1    8.2268032 0.0060347182    110.59721    8553.9915 
   36400    228.52912   0.25734038    1.8950712 0.0098498215          0.1    8.3501433  0.005951507    111.63867     8553.319 
   36500    229.12106   0.25757704    1.8989842 0.0098498215          0.1    8.4611483 0.0058747936    110.46988    8552.8955 
   36600    229.70501   0.25791482    1.9036037 0.0098498215          0.1    8.5769239 0.0057964057    111.22135    8552.3083 
   36700    230.28122   0.25850367    1.9076423 0.0098498215          0.1    8.6912449 0.0057208776    111.72536     8551.613 
   36800    230.84999   0.25945474    1.9120746 0.0098498215          0.1    8.8049999 0.0056477727    110.29712      8551.22 
   36900    231.41158   0.25879982    1.9165101 0.0098498215          0.1    8.9176224 0.0055772389    113.59634    8550.1369 
   37000    231.96623   0.25811711    1.9201215 0.0098498215          0.1    9.0292216 0.0055092277    113.22926    8549.1292 
   37100    232.51299    0.2580397    1.9238481 0.0098498215          0.1    9.1788784 0.0054293896    110.59021    8548.6691 
   37200     233.0524   0.25816809    1.9282328 0.0098498215          0.1    9.3043357 0.0053592621    112.67175    8547.7743 
   37300    233.58559   0.25830716     1.932219 0.0098498215          0.1    9.4109739 0.0052988584    113.42342    8546.7277 
   37400    234.14966   0.25732263    1.9367423 0.0098498215          0.1    7.6825562 0.0061142736    110.87999    8546.2026 
   37500    234.75293   0.25810875    1.9413952 0.0098498215          0.1     7.801119 0.0059730549    113.38488     8545.164 
   37600    235.34812   0.25698648    1.9461076 0.0098498215          0.1     7.981039 0.0059180551    111.62756    8544.4817 
   37700    235.93677   0.25727815     1.950571 0.0098498215          0.1    7.8362802 0.0058513266     111.6576     8543.792 
   37800    236.51505   0.25768518    1.9552981 0.0098498215          0.1    7.9480685   0.00572901    114.22372    8542.5891 
   37900    237.08484   0.25802844    1.9603561 0.0098498215          0.1    8.0660472 0.0056626912    113.42627    8541.5442 
   38000    237.64669   0.25857155    1.9656027 0.0098498215          0.1    8.5537647 0.0055369668    113.13522    8540.5575 
   38100    238.21357   0.25798697    1.9702583 0.0098498215          0.1     8.666241 0.0056868417    113.64475    8539.4714 
   38200    238.77879   0.25813991    1.9742206 0.0098498215          0.1    8.7965581 0.0055959795    113.51382    8538.4119 
   38300    239.33648   0.25863093    1.9775124 0.0098498215          0.1    8.8494712 0.0055526244    113.89834    8537.2786 
   38400    239.85684   0.25923987    1.9810108 0.0098498215          0.1    9.8186424 0.0049667662     115.8476    8535.7768 
   38500    240.36012   0.25871357    1.9851528 0.0098498215          0.1    8.4682565 0.0049798405    114.16738    8534.5955 
   38600    240.86294   0.25822129     1.989372 0.0098498215          0.1    7.8930772 0.0050219655    115.45768     8533.172 
   38700    241.36803   0.25870768    1.9936169 0.0098498215          0.1    8.4397501 0.0050796075    116.03393    8531.6445 
   38800    241.87497   0.25827114    1.9973591 0.0098498215          0.1     8.534754 0.0050455108    115.98426    8530.1296 
   38900    242.37737   0.25785353    2.0011311 0.0098498215          0.1    8.6372303  0.005000021    114.60501    8528.8744 
   39000    242.90104   0.25817646    2.0047799 0.0098498215          0.1     6.994434  0.006141041    112.61693    8528.0008 
   39100     243.5366   0.25771409    2.0089524 0.0098498215          0.1    7.1517056 0.0065310066    115.31088    8526.6172 
   39200    244.17932   0.25828504    2.0135128 0.0098498215          0.1    7.7570799 0.0063426067      113.565    8525.5631 
   39300    244.80136   0.25775711    2.0192342 0.0098498215          0.1    7.8846597 0.0060581238    113.66514    8524.4909 
   39400    245.40406   0.25777087     2.024469 0.0098498215          0.1    8.0060539 0.0060727815    112.38356    8523.6643 
   39500     246.0142   0.25732603    2.0294266 0.0098498215          0.1    8.1280833 0.0060624773     113.6237    8522.6011 
   39600    246.61655   0.25904491    2.0350801 0.0098498215          0.1    8.2485523 0.0059764259     111.3432    8521.9761 
   39700    247.21045    0.2582818     2.040539 0.0098498215          0.1     8.367679 0.0058936965    111.75471    8521.2697 
   39800    247.79447   0.25809951    2.0445072 0.0098498215          0.1    8.6016488 0.0057226097     113.0411    8520.3167 
   39900     248.3617   0.25845961     2.048896 0.0098498215          0.1    8.7045506 0.0056296505    112.38555    8519.4882 
   40000    248.92163   0.25805139    2.0531716 0.0098498215          0.1     8.845958 0.0055803155    112.78967    8518.5829 
   40100    249.45279   0.25893895    2.0574885 0.0098498215          0.1    9.7049463 0.0050762065    111.13088    8517.9945 
   40200    249.95811   0.25790042    2.0613359 0.0098498215          0.1    9.8060106 0.0050253945    111.69126    8517.2967 
   40300    250.45837   0.25729213    2.0652744 0.0098498215          0.1    9.9133235 0.0049710346    114.13532    8516.1414 
   40400    250.95383   0.25929872    2.0683656 0.0098498215          0.1    9.9931377 0.0049299178    110.99446    8515.5764 
   40500    251.44472   0.25854205    2.0720492 0.0098498215          0.1    10.090186 0.0048835523    112.14998    8514.7898 
   40600    251.93102   0.25886617    2.0760529 0.0098498215          0.1    10.187447 0.0048382501    111.47652    8514.1299 
   40700    252.41292   0.25932317    2.0789273 0.0098498215          0.1    10.281273 0.0047960345    111.90039    8513.3888 
   40800    252.89056   0.25807607    2.0828394 0.0098498215          0.1    10.379817 0.0047510059    113.74091     8512.307 
   40900    253.36373   0.25826764    2.0864322 0.0098498215          0.1     10.45625 0.0047147789    111.60989    8511.6198 
   41000    253.83443   0.25812275    2.0898409 0.0098498215          0.1    10.510729 0.0046667859    113.11143    8510.6534 
   41100    254.31252   0.25794467    2.0936605 0.0098498215          0.1    9.1504962 0.0049452388    114.99196    8509.3501 
   41200    254.80567   0.25821386    2.0975629 0.0098498215          0.1    9.2490393 0.0049159706    109.86719    8508.9929 
   41300    255.31306   0.25770308     2.101961 0.0098498215          0.1    9.4478046 0.0052601198    114.22695    8507.8266 
   41400    255.85456    0.2586642    2.1063372 0.0098498215          0.1    9.2006797 0.0054073255    111.16051    8507.2208 
   41500    256.38726   0.25973318    2.1102985 0.0098498215          0.1    9.4300544 0.0052726258    113.69608    8506.1503 
   41600    256.91193   0.25876045    2.1145288 0.0098498215          0.1    9.5349873 0.0052152352    110.48406    8505.6698 
   41700    257.43093   0.25846413    2.1191628 0.0098498215          0.1     9.638789 0.0051596729    110.96216    8505.0977 
   41800    257.94446   0.25950648     2.123432 0.0098498215          0.1    9.7414952  0.005105844     112.4686    8504.2472 
   41900    258.45272   0.25992801    2.1275123 0.0098498215          0.1    9.8416214 0.0050553525    112.27553    8503.4316 
   42000    258.95596   0.25899084    2.1314715 0.0098498215          0.1    9.9419324 0.0050047461     112.7706    8502.5264 
   42100    259.45421   0.25852671    2.1356961 0.0098498215          0.1    10.041582 0.0049555552    110.30771    8502.0717 
   42200    259.94926   0.25939458     2.139811 0.0098498215          0.1    9.5610101 0.0050555749    110.73044    8501.5364 
   42300    260.45073   0.25854069    2.1438184 0.0098498215          0.1    9.6722657 0.0049535427     112.4915    8500.6793 
   42400    260.94851   0.25858796    2.1471248 0.0098498215          0.1    9.7675244 0.0049603518     112.2826    8499.8593 
   42500     261.4425   0.25908281    2.1503162 0.0098498215          0.1    9.8374462 0.0049146392     113.9991    8498.7369 
   42600     261.9316   0.25829593    2.1539572 0.0098498215          0.1    9.8448641 0.0048651722    113.25079    8497.7459 
   42700    262.41679     0.258497    2.1583533 0.0098498215          0.1    9.9247092 0.0048120913    115.10316    8496.4369 
   42800    262.89627   0.25881568    2.1623989 0.0098498215          0.1     10.02817 0.0047718462    109.93927    8496.0425 
   42900     263.3716   0.25927412     2.166499 0.0098498215          0.1    10.126032 0.0047297366    111.56221    8495.3505 
   43000    263.83693   0.25790285    2.1701741 0.0098498215          0.1     10.01181 0.0046126594    114.32151    8494.1761 
   43100    264.29657   0.25872831    2.1734099 0.0098498215          0.1    10.106165 0.0045749457     111.2049    8493.5473 
   43200    264.76142   0.25875839    2.1771565 0.0098498215          0.1    8.8979723 0.0048366951    111.47127    8492.8697 
   43300    265.24861   0.25937316    2.1812359 0.0098498215          0.1    8.8294852 0.0048731461    115.60694     8491.482 
   43400     265.7338   0.25864676    2.1855969 0.0098498215          0.1    8.9641868 0.0047999758    112.19591    8490.6764 
   43500    266.24387   0.25808668    2.1908299 0.0098498215          0.1    7.4995249 0.0053085185    111.93434    8489.9161 
   43600     266.7842   0.25903682    2.1950792 0.0098498215          0.1    8.9433444 0.0053909155    115.28042    8488.5864 
   43700    267.32913   0.25834416    2.1996272 0.0098498215          0.1    7.7079398 0.0054810031    116.26055    8487.0989 
   43800    267.87458   0.25916005    2.2044268 0.0098498215          0.1    7.8594993 0.0054222887    113.33975    8486.0981 
   43900    268.41438   0.25882554    2.2083163 0.0098498215          0.1    7.9703249 0.0053670889    112.64101     8485.217 
   44000    268.94773   0.25966303     2.212245 0.0098498215          0.1    8.1370477 0.0053066946    110.09423    8484.7821 
   44100     269.4761   0.25866133    2.2162302 0.0098498215          0.1    8.2437836 0.0052547495     111.8078    8484.0433 
   44200    269.99915   0.25873628    2.2201241 0.0098498215          0.1    8.8921667 0.0051926848    113.09441    8483.0838 
   44300    270.53362   0.25822959    2.2234401 0.0098498215          0.1    8.3124359 0.0054033003     114.5209    8481.8871 
   44400    271.09276   0.25842971    2.2280097 0.0098498215          0.1    8.3950761 0.0058516697    113.03318    8480.9391 
   44500    271.67915   0.25807743    2.2323024 0.0098498215          0.1    7.6945542 0.0058856766    113.21117    8479.9615 
   44600    272.26709   0.25876036    2.2372532 0.0098498215          0.1    7.6910504 0.0058715001     113.3675    8478.9583 
   44700    272.85361   0.25833435    2.2419126 0.0098498215          0.1    7.8578963 0.0058409882    112.32196    8478.1311 
   44800    273.44043   0.25916193     2.245874 0.0098498215          0.1    7.9488194 0.0058636655    112.74693    8477.2321 
   44900    274.02345   0.25925515    2.2509514 0.0098498215          0.1    8.0654246 0.0057897747    112.62531    8476.3535 
   45000    274.59928   0.25816088    2.2549463 0.0098498215          0.1    8.1770173 0.0057198919    112.45241    8475.5038 
   45100    275.16809    0.2584548    2.2593436 0.0098498215          0.1    8.2853515 0.0056501802    110.03268     8475.068 
   45200     275.7296    0.2586039     2.263807 0.0098498215          0.1    8.2296203   0.00570344    113.19207    8474.0943 
   45300    276.29455   0.25898973    2.2682569 0.0098498215          0.1    8.4124245 0.0055553426     112.3997    8473.2522 
   45400     276.8514   0.25956194    2.2725286 0.0098498215          0.1    8.5148716 0.0055519203    113.28159    8472.2643 
   45500    277.40371   0.25913639    2.2775651 0.0098498215          0.1    8.6253333 0.0054882309    113.56604    8471.2305 
   45600    277.94963   0.25946325    2.2817275 0.0098498215          0.1    8.7451722 0.0054215691    112.59864    8470.3556 
   45700    278.48851   0.25887575    2.2856492 0.0098498215          0.1    8.9494157  0.005323155    112.57649    8469.4844 
   45800     279.0289   0.25871329    2.2895862 0.0098498215          0.1    8.6544915 0.0055360779    117.51987    8467.8346 
   45900     279.5787   0.25816936    2.2940792 0.0098498215          0.1    8.6859232 0.0055263226    113.18978     8466.865 
   46000    280.13872   0.25740335    2.2982945 0.0098498215          0.1    7.6185061  0.006057583    114.45143    8465.6937 
   46100    280.71801   0.25884577    2.3024002 0.0098498215          0.1    7.7516359 0.0056146947    112.32899    8464.8653 
   46200    281.27187   0.25852606    2.3060759 0.0098498215          0.1    8.1093627 0.0054635852    111.79629    8464.1243 
   46300    281.85934   0.25845125    2.3109904 0.0098498215          0.1     7.669201 0.0059550846    111.69917    8463.3986 
   46400    282.45222   0.25905569    2.3149962 0.0098498215          0.1    7.8883083 0.0058969855    113.09325    8462.4454 
   46500    283.03935   0.25758054    2.3200107 0.0098498215          0.1    8.0133179 0.0058398853    111.70524    8461.7177 
   46600    283.62036   0.25812895    2.3239344 0.0098498215          0.1    8.1304442  0.005803014    114.04225    8460.6141 
   46700    284.20061    0.2575409    2.3281581 0.0098498215          0.1    8.1579556 0.0057505785    111.84295    8459.8633 
   46800    284.77666   0.25875208      2.33232 0.0098498215          0.1     7.690924  0.006026472    113.20824    8458.8924 
   46900    285.41764   0.25793056    2.3369888 0.0098498215          0.1    7.2416249 0.0065965005    113.30328    8457.9067 
   47000     286.0596    0.2584148    2.3410807 0.0098498215          0.1    7.4800269 0.0063322738    114.01221    8456.8102 
   47100    286.69203   0.25866799    2.3455744 0.0098498215          0.1    7.5402599 0.0062592773    112.58979    8455.9389 
   47200    287.32155   0.25816127    2.3507495 0.0098498215          0.1    7.6511073 0.0062723637    112.99347    8455.0033 
   47300    287.94411   0.25868905    2.3548724 0.0098498215          0.1    7.7756188 0.0061380046    113.37326    8454.0084 
   47400    288.55644   0.25874321    2.3593671 0.0098498215          0.1    7.8980853 0.0063147907    114.90542    8452.7775 
   47500    289.18273   0.25842696    2.3636284 0.0098498215          0.1    8.0359424 0.0062046373    113.16853    8451.8159 
   47600    289.79915   0.25880719    2.3684396 0.0098498215          0.1    8.1560486 0.0061135442    111.54651    8451.1119 
   47700    290.40641    0.2587047    2.3735303 0.0098498215          0.1    8.2811124 0.0060224404    114.34999    8449.9681 
   47800    291.00515   0.25921201     2.376926 0.0098498215          0.1    8.3949977 0.0059415036    113.02782    8449.0293 
   47900    291.59558   0.25883622    2.3814352 0.0098498215          0.1    8.5148299 0.0058582351    112.66845    8448.1469 
   48000    292.17483   0.25790325    2.3856458 0.0098498215          0.1    8.3871485 0.0056071159    112.63517    8447.2696 
   48100    292.74109   0.25902138    2.3901671 0.0098498215          0.1    7.7258667 0.0056977638    115.36727    8445.9761 
   48200    293.30246   0.25884012     2.394194 0.0098498215          0.1    7.8375073 0.0055946569    114.31643    8444.8418 
   48300    293.89032   0.25803919    2.3984921 0.0098498215          0.1    7.9499945 0.0061709245    113.32177    8443.8598 
   48400    294.50192   0.25873219    2.4042152 0.0098498215          0.1    8.0739108 0.0060260143    113.92194    8442.7869 
   48500    295.11089   0.25810007    2.4088151 0.0098498215          0.1    7.7624745 0.0062557121    114.26875    8441.6625 
   48600    295.73281   0.25873226    2.4130361 0.0098498215          0.1    7.5379136 0.0061729354    111.36674    8440.9855 
   48700    296.34682   0.25841589    2.4173604 0.0098498215          0.1    7.6594729  0.006101731    111.70016    8440.2553 
   48800    296.95321   0.25911535    2.4212812 0.0098498215          0.1     7.780752 0.0060183891    112.27767    8439.4346 
   48900    297.55142   0.25966537    2.4251889 0.0098498215          0.1    7.9003933 0.0059382235    110.83036    8438.8399 
   49000    298.14165   0.25964412    2.4293364 0.0098498215          0.1    8.0090042 0.0058616429    112.04593    8438.0539 
   49100    298.72356   0.25868996    2.4341233 0.0098498215          0.1    8.1072447 0.0057478837     113.4156    8437.0588 
   49200    299.31449   0.25899914    2.4384003 0.0098498215          0.1    7.1935615 0.0064474328    113.84025    8436.0005 
   49300    299.95927   0.25861955     2.443134 0.0098498215          0.1    7.5702916 0.0061506561    116.00858    8434.6264 
   49400    300.57084   0.25917376     2.447528 0.0098498215          0.1    7.8191169 0.0060777328    114.77251     8433.433 
   49500    301.17493   0.26005614    2.4514348 0.0098498215          0.1    7.9385384 0.0059950016    114.51631    8432.2783 
   49600    301.77063   0.26051828    2.4553931 0.0098498215          0.1    8.0545791 0.0059129013     112.8341    8431.3742 
   49700    302.35832   0.26015882    2.4596289 0.0098498215          0.1    8.1783924 0.0058253747    111.82228    8430.6235 
   49800    302.93883   0.25996106    2.4639577 0.0098498215          0.1    8.5676031 0.0057723226    115.77197    8429.2902 
   49900     303.5234   0.25873744    2.4683162 0.0098498215          0.1    7.6772434 0.0061236232    116.96467    8427.7909 
   50000    304.13498   0.25878301    2.4726492 0.0098498215          0.1    7.7995581 0.0060770337    113.07242    8426.8535 
   50100    304.74175   0.25932383     2.476352 0.0098498215          0.1    7.8794884 0.0060432102    111.88871    8426.0936 
   50200    305.34315   0.25946985    2.4804144 0.0098498215          0.1    7.9990716 0.0059785712    113.12168    8425.1489 
   50300    305.93815   0.25950793    2.4848472 0.0098498215          0.1    8.1295451  0.005914982    113.92791    8424.0864 
   50400    306.52683   0.25898685    2.4893857 0.0098498215          0.1    8.2650304 0.0058530582    112.30226    8423.2639 
   50500    307.10714   0.25866103    2.4938575 0.0098498215          0.1    8.3810927 0.0056489106    111.91756    8422.4988 
   50600    307.69542   0.25902578    2.4982664 0.0098498215          0.1    8.4987469 0.0058678243    111.34802    8421.8188 
   50700    308.27862   0.25851901    2.5025292 0.0098498215          0.1    8.6153868 0.0057887893    113.53896    8420.8136 
   50800    308.85363   0.25834825    2.5061104 0.0098498215          0.1    8.7281139 0.0057229788    113.23143    8419.8535 
   50900     309.4226   0.25821205    2.5098573 0.0098498215          0.1    8.8419072 0.0056494675    111.25463    8419.1863 
   51000    309.98434   0.25972173    2.5137524 0.0098498215          0.1    8.9542554 0.0055787174    113.44272    8418.1957 
   51100    310.53913   0.25872431    2.5177318 0.0098498215          0.1    9.0653005 0.0055104909    110.97463    8417.5694 
   51200    311.08713   0.25874884    2.5215499 0.0098498215          0.1    9.1765428 0.0054439259    111.60712    8416.8475 
   51300    311.62865   0.26002762    2.5247073 0.0098498215          0.1    9.2848472 0.0053805332     111.9436    8416.0751 
   51400    312.16365   0.26017694    2.5283044 0.0098498215          0.1    9.3985943 0.0053156423    112.11365    8415.2772 
   51500    312.69254   0.25879108     2.532056 0.0098498215          0.1    9.5043723 0.0052565764     109.3054    8414.9011 
   51600    313.21561   0.25830301    2.5360166 0.0098498215          0.1    9.6089865 0.0051994365    110.84679     8414.289 
   51700    313.73304   0.25935727    2.5390871 0.0098498215          0.1    9.6593266  0.005175676    113.57315    8413.2785 
   51800     314.2485   0.25851943    2.5429126 0.0098498215          0.1    9.7539144 0.0051252084    113.22449    8412.3182 
   51900     314.7588   0.25859677    2.5465984 0.0098498215          0.1    9.8161806 0.0050926711    114.60439    8411.1639 
   52000    315.26606   0.25856348    2.5499707 0.0098498215          0.1    9.9144951 0.0050412939    109.26884    8410.7875 
   52100    315.76791   0.25972528    2.5537798 0.0098498215          0.1     10.01484 0.0049907937    111.47501    8410.0794 
   52200    316.26476   0.25904974     2.558054 0.0098498215          0.1    10.114261 0.0049417445    113.65729    8409.0579 
   52300    316.75677    0.2592782    2.5616825 0.0098498215          0.1    10.213188 0.0048939391    112.58232    8408.1892 
   52400    317.24426   0.25876216    2.5652872 0.0098498215          0.1    10.299664 0.0048526087    114.07659      8407.11 
   52500    317.74648    0.2597844    2.5687478 0.0098498215          0.1    7.6569068 0.0051542955    114.59218    8405.9604 
   52600     318.2609   0.25974002    2.5724588 0.0098498215          0.1    7.7549959 0.0051209972    113.94011    8404.9017 
   52700     318.7712   0.25930879    2.5764224 0.0098498215          0.1    7.8536733  0.005080146    112.47925    8404.0487 
   52800    319.30365    0.2600366    2.5797724 0.0098498215          0.1    7.4589409 0.0064015625    113.42471    8403.0626 
   52900    319.93779   0.25965772    2.5839193 0.0098498215          0.1     7.590579 0.0062562847    112.59955    8402.1926 
   53000    320.56905   0.25972806    2.5874738 0.0098498215          0.1    7.3670077 0.0064561996    114.52247     8401.056 
[...]
  985300    5538.0856   0.25899802     39.30256 0.0098498215          0.1    6.8646816 0.0060817392    104.66264      138.252 
  985400    5538.7223   0.25837757    39.307133 0.0098498215          0.1    6.9129041 0.0064722453    106.17693    137.31153 
  985500    5539.3652   0.25756326      39.3117 0.0098498215          0.1    7.0590464 0.0063332961    105.33448    136.37117 
  985600    5539.9666   0.25720073    39.315544 0.0098498215          0.1    8.0280344 0.0058750851    106.32335    135.43068 
  985700    5540.5493   0.25683354     39.31957 0.0098498215          0.1    7.9841868 0.0057783835    106.35877    134.49018 
  985800    5541.1829   0.25769809     39.32386 0.0098498215          0.1    7.2844832 0.0065507046    106.66941    133.54965 
  985900    5541.8403    0.2579801    39.327789 0.0098498215          0.1    6.9715283 0.0065849841    107.01412    132.60907 
  986000     5542.504    0.2589433    39.332567 0.0098498215          0.1    7.0140075  0.006607641     106.3626    131.66858 
  986100    5543.1598   0.25899935    39.337458 0.0098498215          0.1    7.1833808 0.0064992266    105.18678    130.72823 
  986200    5543.8058   0.25762576    39.342736 0.0098498215          0.1    7.7068799 0.0063984503    109.04113    129.78741 
  986300    5544.4416   0.25826995    39.347492 0.0098498215          0.1    7.7612611 0.0063111207    107.21803    128.84682 
  986400    5545.0665   0.25815818    39.352637 0.0098498215          0.1    7.9863247 0.0061731078    105.08163    127.90648 
  986500     5545.689   0.25840103    39.357589 0.0098498215          0.1    7.4460561 0.0061871091    105.38352    126.96611 
  986600    5546.3034   0.25926011       39.362 0.0098498215          0.1    7.5921909 0.0060691821    105.18045    126.02576 
  986700    5546.9256   0.25799446    39.367234 0.0098498215          0.1    7.3697308 0.0067091302    106.42657    125.08526 
  986800    5547.5912   0.25814839    39.371818 0.0098498215          0.1    7.5028551 0.0065926513    106.74797    124.14472 
  986900    5548.2188   0.25820943     39.37554 0.0098498215          0.1    7.6279922 0.0061772503    107.81427    123.20405 
  987000    5548.8414   0.25797869    39.380532 0.0098498215          0.1    7.7517876 0.0063850141    105.64247    122.26365 
  987100    5549.4753   0.25779089    39.385768 0.0098498215          0.1    7.8785734 0.0062842786     104.3911    121.32338 
  987200    5550.0993   0.25785851    39.390676 0.0098498215          0.1    8.0135568 0.0061807282    104.91242    120.38306 
  987300    5550.7122   0.25789623    39.395535 0.0098498215          0.1    8.1640742 0.0060724439    105.32614    119.44268 
  987400    5551.3155   0.25794619    39.400607 0.0098498215          0.1    8.2852424 0.0059851915     105.8768    118.50224 
  987500    5551.9091   0.25851733     39.40533 0.0098498215          0.1    8.3124313 0.0059603758    106.06491    117.56177 
  987600    5552.5109   0.25800473    39.409772 0.0098498215          0.1    8.3578928 0.0059790175    105.77891    116.62134 
  987700    5553.1052   0.25820926    39.414731 0.0098498215          0.1    8.4706906 0.0058997393    105.58947    115.68093 
  987800    5553.6916   0.25756296    39.419992 0.0098498215          0.1    8.5879556 0.0058192601    106.58107     114.7404 
  987900      5554.27    0.2573523     39.42367 0.0098498215          0.1    8.7056199 0.0057405916    104.13141    113.80015 
  988000    5554.8408    0.2565611    39.427665 0.0098498215          0.1    8.8121454 0.0056710656    104.75745    112.85983 
  988100    5555.4046   0.25829778    39.431189 0.0098498215          0.1    8.9248309 0.0055997266    104.67664    111.91951 
  988200    5555.9614   0.25770354    39.434653 0.0098498215          0.1    9.0362007 0.0055307743     105.3267    110.97911 
  988300    5556.5115   0.25792272    39.438989 0.0098498215          0.1     9.146214 0.0054643081    105.10857    110.03874 
  988400    5557.0544   0.25783177    39.442805 0.0098498215          0.1    9.2233628 0.0054207915    107.23919    109.09814 
  988500    5557.5938   0.25803062    39.446387 0.0098498215          0.1    9.3271648 0.0053603208    105.76336     108.1577 
  988600    5558.1271   0.25877069    39.450199 0.0098498215          0.1    9.4338224 0.0052997258    106.48209    107.21718 
  988700    5558.6544   0.25800393      39.4538 0.0098498215          0.1    9.5425437 0.0052391937    105.52754    106.27676 
  988800    5559.1873   0.25860125    39.457503 0.0098498215          0.1    9.3438472 0.0053339589    105.68969    105.33633 
  988900    5559.7425   0.25934613    39.461166 0.0098498215          0.1     8.563276 0.0056659389    106.08337    104.39585 
  989000     5560.306   0.25983907    39.464528 0.0098498215          0.1    8.6762312 0.0055961274    103.18233    103.45566 
  989100    5560.8625   0.25920621    39.468054 0.0098498215          0.1    8.7875917 0.0055290118    106.28417    102.51516 
  989200    5561.4125   0.25879056    39.471583 0.0098498215          0.1    8.8975285 0.0054640866    105.69281    101.57472 
  989300     5561.956   0.25805301    39.476187 0.0098498215          0.1     9.025971 0.0053885927    105.09159    100.63433 
  989400    5562.4949   0.25844143    39.479807 0.0098498215          0.1    8.8890934 0.0053739537    107.91061    99.693673 
  989500    5563.0404   0.25857324    39.483607 0.0098498215          0.1    8.2692238 0.0054724166    106.94981    98.753108 
  989600    5563.5762   0.25816404    39.487366 0.0098498215          0.1    8.2300649 0.0052061843    106.89633     97.81255 
  989700    5564.0951   0.25833444    39.490988 0.0098498215          0.1    8.3514205 0.0051671259    106.03362    96.872071 
  989800    5564.6084   0.25813543    39.494404 0.0098498215          0.1    8.4658618 0.0052013792    107.93949    95.931421 
  989900    5565.1363   0.25826098    39.498084 0.0098498215          0.1    8.5705556  0.005310399    109.94918    94.990601 
  990000    5565.6657   0.25863489    39.502318 0.0098498215          0.1    8.6778616 0.0052180489    106.95016    94.050044 
  990100     5566.214   0.25860448    39.506415 0.0098498215          0.1    8.7875133 0.0056821462    107.07133    93.109478 
  990200    5566.7789   0.25919801    39.509647 0.0098498215          0.1    8.9005042 0.0056102045    107.52839    92.168874 
  990300    5567.3368   0.25795831    39.513695 0.0098498215          0.1    9.0120805 0.0055409268    104.85016    91.228505 
  990400    5567.8877   0.25763831    39.516514 0.0098498215          0.1    9.1238175 0.0054740347    105.54156    90.288073 
  990500    5568.4318   0.25858999     39.52015 0.0098498215          0.1    9.2367815 0.0054037299    105.57578    89.347637 
  990600    5568.9693   0.25886576    39.523921 0.0098498215          0.1    9.3539144  0.005331593    106.00304    88.407162 
  990700    5569.5003   0.25787915    39.527877 0.0098498215          0.1    9.4412639 0.0052809427    106.01464    87.466687 
  990800    5570.0258   0.25892029     39.53176 0.0098498215          0.1     9.546713 0.0052229349    104.81685     86.52631 
  990900    5570.5454   0.25781398    39.535619 0.0098498215          0.1     9.734354 0.0051180293    104.80863    85.585932 
  991000    5571.1085   0.25767015    39.539802 0.0098498215          0.1    8.3982065 0.0057787164    108.39919    84.645264 
  991100    5571.6768    0.2576759    39.543809 0.0098498215          0.1    8.5696135 0.0056811453    107.74877    83.704649 
  991200     5572.245   0.25769763    39.548295 0.0098498215          0.1    8.6034864 0.0056535651    106.44175    82.764139 
  991300    5572.8077   0.25841749    39.553051 0.0098498215          0.1    8.7482463 0.0055930381    107.49047    81.823548 
  991400     5573.363   0.25758719     39.55707 0.0098498215          0.1    8.8376702 0.0055051769    107.03854    80.882993 
  991500    5573.9299    0.2586576    39.561277 0.0098498215          0.1     8.294464 0.0059552996    108.53389    79.942329 
  991600    5574.5233   0.25808315    39.565499 0.0098498215          0.1    8.4037344 0.0059077953    106.60529     79.00181 
  991700    5575.1114   0.25906949    39.569924 0.0098498215          0.1    8.5068875 0.0058364924     105.9046    78.061344 
  991800    5575.6916   0.25843408    39.573777 0.0098498215          0.1    8.6231951 0.0057577291     105.3572    77.120917 
  991900    5576.2643   0.25880907    39.577419 0.0098498215          0.1    7.7355116 0.0057418882    106.51454    76.180405 
  992000    5576.8367   0.25883453    39.581371 0.0098498215          0.1    7.7849584 0.0056507402    105.25417    75.239983 
  992100    5577.4367   0.25856529    39.585043 0.0098498215          0.1    7.8742964 0.0060659005    106.52111     74.29947 
  992200    5578.0233   0.25767635    39.588797 0.0098498215          0.1    7.9907003 0.0054454357    107.13382    73.358914 
  992300    5578.5668   0.25915231    39.591602 0.0098498215          0.1    8.1029488 0.0054214318    105.66169    72.418461 
  992400    5579.1078   0.25823731    39.594698 0.0098498215          0.1     7.033834 0.0053971091    106.46236    71.477953 
  992500    5579.6665   0.25772381    39.598379 0.0098498215          0.1    7.2139619 0.0060794474    106.75721    70.537425 
  992600    5580.2705   0.25731759    39.602316 0.0098498215          0.1    7.2898004 0.0060614802    106.26767    69.596929 
  992700    5580.8749   0.25747656    39.605992 0.0098498215          0.1    7.8479056 0.0060048814    106.55914    68.656415 
  992800    5581.4511   0.25757842    39.609586 0.0098498215          0.1    7.5043995 0.0052545749    105.19749     67.71599 
  992900    5581.9751   0.25727551    39.612687 0.0098498215          0.1    7.5509904 0.0052236313    106.65381    66.775469 
  993000    5582.4961   0.25822725    39.615884 0.0098498215          0.1    7.6489385 0.0051924198    105.02811    65.835052 
  993100    5583.0137   0.25760271    39.619007 0.0098498215          0.1    7.7404582 0.0059245443    104.61445    64.894658 
  993200    5583.5347   0.25728615    39.622091 0.0098498215          0.1    9.0647464 0.0050929759    106.06512    63.954171 
  993300    5584.0406   0.25680158    39.624368 0.0098498215          0.1    7.2716693 0.0049450247    106.64993     63.01365 
  993400    5584.5378   0.25706302    39.627557 0.0098498215          0.1    7.6564183 0.0049580667    106.83648    62.073117 
  993500    5585.0618   0.25686758    39.630757 0.0098498215          0.1    7.3926309 0.0056690402    107.57337    61.132544 
  993600    5585.6267   0.25647806    39.634581 0.0098498215          0.1    6.7599461  0.005624509    104.29921    60.192161 
  993700    5586.1871   0.25721832    39.638254 0.0098498215          0.1    6.8720256 0.0055789893    105.31604    59.251716 
  993800    5586.7405   0.25708758    39.642369 0.0098498215          0.1    6.9852024 0.0054827268    106.94694    58.311179 
  993900    5587.2872    0.2581231     39.64562 0.0098498215          0.1    7.0939837 0.0054437593    105.52266     57.37072 
  994000    5587.8297   0.25770919    39.649568 0.0098498215          0.1    7.2025912 0.0053923381     104.9504     56.43029 
  994100    5588.4087   0.25844509    39.653087 0.0098498215          0.1    7.3204528  0.005990361    105.73595    55.489817 
  994200     5589.052   0.25751054    39.657512 0.0098498215          0.1    7.4493411  0.006520196    107.51521    54.549251 
  994300    5589.6975   0.25802998    39.661636 0.0098498215          0.1    7.5595812 0.0064285864     107.7455    53.608675 
  994400    5590.3359   0.25837255    39.665347 0.0098498215          0.1    7.6866285 0.0063280496    105.28289    52.668225 
  994500    5590.9646   0.25744371    39.670032 0.0098498215          0.1    7.8084509 0.0062347144    104.89195    51.727792 
  994600    5591.5838   0.25778849    39.673782 0.0098498215          0.1    7.9323069 0.0061423117    103.89146    50.787406 
  994700    5592.1941   0.25782211     39.67763 0.0098498215          0.1    8.0577201 0.0060514204    106.21766    49.846904 
  994800    5592.7951   0.25802583    39.681701 0.0098498215          0.1    8.2253746  0.005977953    107.72716    48.906332 
  994900     5593.396   0.25815056    39.686122 0.0098498215          0.1    8.1340193 0.0059751278    105.45219    47.965866 
  995000    5593.9885   0.25725767    39.690177 0.0098498215          0.1    8.2765999 0.0058275521    105.25129    47.025407 
  995100    5594.5855    0.2581457    39.693699 0.0098498215          0.1    8.4051298 0.0059404214    103.84552    46.085009 
  995200    5595.1767   0.25826685    39.697859 0.0098498215          0.1    8.5067668 0.0058699549    104.89227    45.144561 
  995300    5595.7597   0.25819054    39.702994 0.0098498215          0.1    8.6980609 0.0057375603    105.63332    44.204078 
  995400    5596.3304   0.25773425    39.707866 0.0098498215          0.1    8.7801049 0.0056754236    106.64006    43.263553 
  995500    5596.8939   0.25921965    39.712172 0.0098498215          0.1     8.872255  0.005604145    105.44628    42.323077 
  995600    5597.4498   0.25865689    39.716681 0.0098498215          0.1    9.0168019 0.0055021809    106.41469     41.38256 
  995700    5598.0008    0.2578346    39.720825 0.0098498215          0.1    9.0706943 0.0054831704    106.90156    40.442026 
  995800    5598.5457   0.25743309    39.725289 0.0098498215          0.1     9.158264 0.0054285661    107.22998     39.50148 
  995900    5599.0884   0.25779877    39.728821 0.0098498215          0.1    9.2161458 0.0054011511    106.53645    38.560961 
  996000    5599.6243    0.2572485    39.732889 0.0098498215          0.1    9.3862771 0.0052850566    104.60404    37.620512 
  996100    5600.1554   0.25767323    39.736869 0.0098498215          0.1    9.2209639 0.0053199995    108.38488    36.679929 
  996200    5600.6855   0.25760957    39.741001 0.0098498215          0.1    9.3106135 0.0052696764    106.39169    35.739416 
  996300    5601.2099    0.2575985    39.745036 0.0098498215          0.1    9.4165509 0.0052123979     105.5664     34.79893 
  996400    5601.7285   0.25854631    39.748542 0.0098498215          0.1    9.5201596 0.0051572398    104.63567    33.858473 
  996500    5602.2419   0.25779762    39.752665 0.0098498215          0.1     9.623413 0.0051036761    104.57431    32.918015 
  996600    5602.7498   0.25857514    39.756423 0.0098498215          0.1    9.7346962 0.0050437578    105.61534    31.977522 
  996700    5603.2545   0.25861278    39.759971 0.0098498215          0.1    9.6487901  0.005046848    107.41037    31.036975 
  996800    5603.7845   0.26005041      39.7636 0.0098498215          0.1    7.3320649 0.0053440051    106.53177    30.096455 
  996900    5604.3172   0.25940737    39.768046 0.0098498215          0.1     7.435746 0.0053051328    105.39419    29.155967 
  997000    5604.8447    0.2597621    39.771931 0.0098498215          0.1    7.5472125 0.0052438409    104.07354    28.215513 
  997100    5605.3757   0.25920201    39.776037 0.0098498215          0.1     7.119736 0.0053311176    106.64597    27.274987 
  997200    5605.9671   0.25903117    39.780241 0.0098498215          0.1    6.9095321 0.0060313092    107.32986    26.334446 
  997300    5606.5686   0.25930951    39.784791 0.0098498215          0.1    7.1280534 0.0060633555    106.49866    25.393926 
  997400    5607.1745   0.25902113    39.789802 0.0098498215          0.1    7.2152028  0.006048914    105.59058    24.453427 
  997500    5607.7774   0.25889794    39.794212 0.0098498215          0.1    7.3161352 0.0060000878    105.84385    23.512921 
  997600     5608.387   0.25809221    39.798753 0.0098498215          0.1    7.4382837 0.0064772607    105.28656    22.572427 
  997700    5609.0477   0.25826667    39.803619 0.0098498215          0.1    6.8472335 0.0067710419    105.95431    21.631917 
  997800    5609.7195   0.25956425    39.808136 0.0098498215          0.1    6.9815914 0.0065210012    105.11929    20.691422 
  997900    5610.4025   0.25874101    39.813433 0.0098498215          0.1    7.1181963 0.0069277786    107.54747    19.750881 
  998000    5611.0627     0.258355     39.81852 0.0098498215          0.1     7.821108 0.0063694154     107.7253    18.810338 
  998100    5611.7373   0.25931724    39.823013 0.0098498215          0.1    7.3851591 0.0067271219    105.06718    17.869842 
  998200    5612.4047   0.25920492    39.828199 0.0098498215          0.1    7.5186298 0.0066091817    105.35088     16.92934 
  998300    5613.0605   0.25872517    39.832171 0.0098498215          0.1    7.6497963 0.0064972147     106.8649    15.988813 
  998400    5613.6817   0.25777766    39.837224 0.0098498215          0.1    7.7740414  0.005637668    106.41536    15.048293 
  998500    5614.2429   0.25912775    39.840505 0.0098498215          0.1    7.8863054 0.0055790257     104.2606    14.107803 
  998600    5614.7982   0.25929826    39.844463 0.0098498215          0.1     7.999016 0.0055238159    105.41307    13.167294 
  998700    5615.3468   0.25845136    39.848574 0.0098498215          0.1      8.10836 0.0055960447    106.51078    12.226771 
  998800    5615.9046   0.25741901    39.852514 0.0098498215          0.1    8.2199268 0.0055762774    108.29826     11.28623 
  998900    5616.4595   0.25788865    39.856329 0.0098498215          0.1    8.3319111 0.0055160206     106.8401    10.345705 
  999000    5617.0021   0.25874462    39.859223 0.0098498215          0.1    8.4355962 0.0053444888     104.4607    9.4052036 
  999100    5617.5342   0.25841407    39.863171 0.0098498215          0.1    8.2864953 0.0052920825    104.86554     8.464695 
  999200    5618.0668   0.25819624    39.866341 0.0098498215          0.1    8.3665429 0.0053470352    105.12617    7.5241819 
  999300    5618.5989   0.25775526     39.87017 0.0098498215          0.1     8.477449 0.0052914084    105.66746    6.5836633 
  999400    5619.1257   0.25630178    39.874226 0.0098498215          0.1    8.5828203 0.0052389128     105.6934    5.6431433 
  999500    5619.6519   0.25880847    39.877449 0.0098498215          0.1    6.9071433 0.0059780883    106.09482    4.7026204 
  999600    5620.2891   0.25786019    39.880995 0.0098498215          0.1    6.9933159 0.0063770642    108.26282    3.7620896 
  999700    5620.9242   0.25812403    39.884896 0.0098498215          0.1    7.0824932  0.006488071    106.79744     2.821566 
  999800    5621.6084   0.25824914    39.889016 0.0098498215          0.1    7.1335488 0.0068314874    108.06115    1.8810409 
  999900    5622.2576   0.25818773    39.893677 0.0098498215          0.1    7.2633925 0.0058654773    107.38521   0.94051954 
 1000000    5622.8423   0.25785296    39.897923 0.0098498215          0.1    7.3803434 0.0058227635    104.72345            0 
Loop time of 9405.21 on 4 procs for 1000000 steps with 174608 atoms

Performance: 53490.222 tau/day, 106.324 timesteps/s
242.9% CPU use with 1 MPI tasks x 4 OpenMP threads

MPI task timing breakdown:
Section |  min time  |  avg time  |  max time  |%varavg| %total
---------------------------------------------------------------
Pair    | 3500.8     | 3500.8     | 3500.8     |   0.0 | 37.22
Neigh   | 142.77     | 142.77     | 142.77     |   0.0 |  1.52
Comm    | 1217.3     | 1217.3     | 1217.3     |   0.0 | 12.94
Output  | 26.51      | 26.51      | 26.51      |   0.0 |  0.28
Modify  | 3832.6     | 3832.6     | 3832.6     |   0.0 | 40.75
Other   |            | 685.2      |            |       |  7.28

Nlocal:    174608 ave 174608 max 174608 min
Histogram: 1 0 0 0 0 0 0 0 0 0
Nghost:    66614 ave 66614 max 66614 min
Histogram: 1 0 0 0 0 0 0 0 0 0
Neighs:    0 ave 0 max 0 min
Histogram: 1 0 0 0 0 0 0 0 0 0

Total # of neighbors = 0
Ave neighs/atom = 0
Neighbor list builds = 322308
Dangerous builds = 0

Please see the log.cite file for references relevant to this simulation

Total wall time: 2:37:22
