#package gpu 1
#suffix gpu
# variable rho equal 0.03

units lj
atom_style atomic

lattice fcc 0.975
Lattice spacing in x,y,z = 1.60085 1.60085 1.60085
region box block 0 60 0 30 0 30
create_box 2 box
Created orthogonal box = (0 0 0) to (96.0513 48.0256 48.0256)
  1 by 1 by 1 MPI processor grid
create_atoms 1 box
Created 216000 atoms
  Time spent = 0.040751 secs
mass 1 4.0
mass 2 0.5


pair_style lj/cut 2.5
pair_coeff 1 1 1.0 1.0 2.5
pair_coeff 2 2 0.5 0.88 2.5
pair_coeff 1 2 0.2 1.0 2.5
#pair_coeff 1 2 1.5 0.8 2.5
pair_modify mix geometric
neigh_modify every 1 delay 0 check yes

variable R equal 12
region cylinder1 cylinder x $(0.5*ly) $(0.5*lz) $R EDGE EDGE units box
region cylinder1 cylinder x 24.012813670346833561 $(0.5*lz) $R EDGE EDGE units box
region cylinder1 cylinder x 24.012813670346833561 24.012813670346833561 $R EDGE EDGE units box
region cylinder1 cylinder x 24.012813670346833561 24.012813670346833561 12 EDGE EDGE units box

group cylinder1 region cylinder1
41820 atoms in group cylinder1
variable V equal PI*v_R*v_R*lx
# variable rho equal 0.1
variable natoms equal $V*${rho}
variable natoms equal 43452.5639148185*${rho}
variable natoms equal 43452.5639148185*0.01
variable natoms_in_cylinder equal count(cylinder1)
variable delete_fraction equal (${natoms_in_cylinder}-${natoms})/${natoms_in_cylinder}
variable delete_fraction equal (41820-${natoms})/${natoms_in_cylinder}
variable delete_fraction equal (41820-434.525639148185)/${natoms_in_cylinder}
variable delete_fraction equal (41820-434.525639148185)/41820
set group cylinder1 type 2
  41820 settings made for type
delete_atoms porosity cylinder1 ${delete_fraction} 12345
delete_atoms porosity cylinder1 0.989609621254228 12345
Deleted 41392 atoms, new total = 174608
#delete_atoms region cylinder1

region cylinder2 cylinder x $(0.5*ly) $(0.5*lz) $(v_R+6) EDGE EDGE units box
region cylinder2 cylinder x 24.012813670346833561 $(0.5*lz) $(v_R+6) EDGE EDGE units box
region cylinder2 cylinder x 24.012813670346833561 24.012813670346833561 $(v_R+6) EDGE EDGE units box
region cylinder2 cylinder x 24.012813670346833561 24.012813670346833561 18 EDGE EDGE units box
region cylinder3 cylinder x $(0.5*ly) $(0.5*lz) $(v_R+11) EDGE EDGE units box
region cylinder3 cylinder x 24.012813670346833561 $(0.5*lz) $(v_R+11) EDGE EDGE units box
region cylinder3 cylinder x 24.012813670346833561 24.012813670346833561 $(v_R+11) EDGE EDGE units box
region cylinder3 cylinder x 24.012813670346833561 24.012813670346833561 23 EDGE EDGE units box
group cylinder2 region cylinder2
54428 atoms in group cylinder2
group cylinder3 region cylinder3
114188 atoms in group cylinder3

group nve region cylinder3
114188 atoms in group nve
group langevin subtract cylinder3 cylinder2
59760 atoms in group langevin
group frozen subtract all cylinder3
60420 atoms in group frozen

region force cylinder x $(0.5*ly) $(0.5*lz) $(v_R-1) EDGE EDGE units box
region force cylinder x 24.012813670346833561 $(0.5*lz) $(v_R-1) EDGE EDGE units box
region force cylinder x 24.012813670346833561 24.012813670346833561 $(v_R-1) EDGE EDGE units box
region force cylinder x 24.012813670346833561 24.012813670346833561 11 EDGE EDGE units box
group inner dynamic all region cylinder1 every 1
dynamic group inner defined
#group gas dynamic all region force every 1
group gas type 2
428 atoms in group gas

fix nve nve nve
fix langevin langevin langevin 0.50 0.50 1.0 12345 zero yes

variable gascount equal count(gas)

variable dP equal 0.001
variable measured_rho equal mass(gas)/(PI*(v_R-1)*(v_R-1)*lx)
variable force equal v_dP/v_measured_rho
variable force equal v_dP/v_rho

velocity all create 0.1 87287
velocity frozen set 0 0 0

compute chunk all chunk/atom bin/cylinder x lower $(lx) $(0.5*ly) $(0.5*lz) 0 $(v_R+5) 30 units box
compute chunk all chunk/atom bin/cylinder x lower 96.051254681387334244 $(0.5*ly) $(0.5*lz) 0 $(v_R+5) 30 units box
compute chunk all chunk/atom bin/cylinder x lower 96.051254681387334244 24.012813670346833561 $(0.5*lz) 0 $(v_R+5) 30 units box
compute chunk all chunk/atom bin/cylinder x lower 96.051254681387334244 24.012813670346833561 24.012813670346833561 0 $(v_R+5) 30 units box
compute chunk all chunk/atom bin/cylinder x lower 96.051254681387334244 24.012813670346833561 24.012813670346833561 0 17 30 units box

compute displacement nve displace/atom
compute mean_displacement nve reduce ave c_displacement[4]

compute vmax all reduce max vx
variable volume equal count(gas)/v_V

thermo_style custom step time temp c_mean_displacement v_volume v_force c_vmax dt spcpu cpuremain
thermo 100

compute keAtom all ke/atom
dump dump all custom 1000 trajectory_l.bin id type x y z c_keAtom

fix flow gas addforce v_force 0.0 0.0
run 5000
No /omp style for force computation currently active
Per MPI rank memory allocation (min/avg/max) = 85.71 | 85.71 | 85.71 Mbytes
Step Time Temp c_mean_displacement v_volume v_force c_vmax Dt S/CPU CPULeft 
       0            0  0.065510141            0 0.0098498215          0.1    0.7745455        0.005            0            0 
     100          0.5  0.098275312  0.057775455 0.0098498215          0.1    1.2034124        0.005    117.31941    41.766318 
     200            1   0.14533021  0.087828672 0.0098498215          0.1    1.6069974        0.005     117.6188    40.861897 
     300          1.5    0.1695792   0.11958303 0.0098498215          0.1    1.6964618        0.005     117.6612     39.98879 
     400            2   0.18745305   0.14464588 0.0098498215          0.1     1.740311        0.005    118.60411    39.049607 
     500          2.5   0.19956901   0.16345678 0.0098498215          0.1    1.9745637        0.005    117.54114    38.217455 
     600            3    0.2073342   0.17551792 0.0098498215          0.1     2.036436        0.005    117.66407    37.372574 
     700          3.5   0.21325624    0.1790756 0.0098498215          0.1    2.0315905        0.005    115.47211    36.625379 
     800            4   0.21814397   0.17454914 0.0098498215          0.1    2.5625086        0.005    116.51372     35.80783 
     900          4.5   0.22552345   0.16402788 0.0098498215          0.1    2.3231851        0.005    117.21021    34.957999 
    1000            5   0.23074766   0.15039537 0.0098498215          0.1    2.2655391        0.005     115.3013       34.164 
    1100          5.5   0.23597723   0.13642066 0.0098498215          0.1    2.3921057        0.005    115.39123    33.354278 
    1200            6   0.23971451   0.12501072 0.0098498215          0.1    2.4655391        0.005    115.87701     32.52357 
    1300          6.5   0.24245763   0.11772098 0.0098498215          0.1    2.5655391        0.005    115.70484     31.69155 
    1400            7   0.24629166   0.11569068 0.0098498215          0.1    2.8732683        0.005    116.80988    30.833899 
    1500          7.5   0.24959899   0.11765665 0.0098498215          0.1    2.8905626        0.005    114.66022    30.013907 
    1600            8   0.25335786   0.12098671 0.0098498215          0.1    2.9710091        0.005    114.09924    29.196508 
    1700          8.5   0.25717089   0.12483629 0.0098498215          0.1    3.2022078        0.005    115.47691    28.351866 
    1800            9   0.26073524   0.12824296 0.0098498215          0.1    2.8720574        0.005    115.53535    27.504076 
    1900          9.5   0.26584367   0.13086206 0.0098498215          0.1    2.9444576        0.005    113.77417    26.676277 
    2000           10   0.26902973   0.13308779 0.0098498215          0.1    3.8095002        0.005    112.61186    25.856974 
    2100         10.5   0.27309215   0.13537441 0.0098498215          0.1    3.3047546        0.005     114.3843    25.012126 
    2200           11   0.27631961   0.13891628 0.0098498215          0.1      3.46564        0.005     113.0195    24.178041 
    2300         11.5   0.27849594   0.14436412 0.0098498215          0.1    3.6494169        0.005    112.67239    23.342744 
    2400           12   0.28061851   0.15124064 0.0098498215          0.1    3.6491157        0.005    113.24617    22.498226 
    2500         12.5   0.28194913    0.1574922 0.0098498215          0.1    3.7707968        0.005    113.39052      21.6495 
    2600           13   0.28469975   0.16291607 0.0098498215          0.1    3.8491157        0.005    112.85088    20.802115 
    2700         13.5   0.28635684   0.16756284 0.0098498215          0.1    3.9491157        0.005    113.72012    19.946092 
    2800           14   0.28839518   0.17070242 0.0098498215          0.1    4.0491157        0.005    112.81218    19.093963 
    2900         14.5   0.28937197   0.17251924 0.0098498215          0.1    4.1491157        0.005    113.85864    18.233568 
    3000           15   0.29110046   0.17343522 0.0098498215          0.1    4.2491157        0.005    111.20935    17.385929 
    3100         15.5   0.29212693    0.1745392 0.0098498215          0.1    4.3491157        0.005    109.75888    16.542247 
    3200           16   0.29341247   0.17576522 0.0098498215          0.1    4.4625329        0.005    112.41501    15.682242 
    3300         16.5   0.29420693   0.17741159 0.0098498215          0.1    4.5491157        0.005    111.74033    14.823214 
    3400           17   0.29632676   0.17891492 0.0098498215          0.1    4.6491157        0.005    112.72114    13.958409 
    3500         17.5   0.29760819   0.18168152 0.0098498215          0.1    4.7491157        0.005    112.72662    13.092309 
    3600           18   0.29828058   0.18491856 0.0098498215          0.1    4.8492408        0.005    111.95812    12.227411 
    3700         18.5   0.29954884   0.18829282 0.0098498215          0.1    4.9489731        0.005    109.25153    11.368757 
    3800           19   0.30145783   0.19218632 0.0098498215          0.1    5.1854096        0.005     111.0033     10.50256 
    3900         19.5   0.30207667    0.1964304 0.0098498215          0.1    5.1379499        0.005    110.88257    9.6348608 
    4000           20   0.30498538     0.200396 0.0098498215          0.1    5.2379499        0.005    109.63855    8.7680122 
    4100         20.5   0.30686462   0.20517279 0.0098498215          0.1    5.3379499        0.005    109.75598    7.8987427 
    4200           21   0.30670954   0.21017463 0.0098498215          0.1    5.4379499        0.005    111.07879    7.0254139 
    4300         21.5   0.30817573   0.21519166 0.0098498215          0.1    5.5379499        0.005    110.41451    6.1517139 
    4400           22   0.31037836   0.22015284 0.0098498215          0.1    5.8658522        0.005    110.15776    5.2768486 
    4500         22.5   0.31105422   0.22531521 0.0098498215          0.1    5.7628051        0.005    111.64937    4.3991722 
    4600           23   0.31065504   0.23059047 0.0098498215          0.1    5.8733805        0.005    108.76044    3.5227828 
    4700         23.5   0.31252086   0.23592204 0.0098498215          0.1     6.011306        0.005    108.82447    2.6445264 
    4800           24   0.31315118   0.24099887 0.0098498215          0.1    6.0663806        0.005    108.84675    1.7645682 
    4900         24.5   0.31385515   0.24591917 0.0098498215          0.1    6.1794318        0.005    108.66988   0.88305827 
    5000           25    0.3153328    0.2505359 0.0098498215          0.1    6.2744196        0.005    107.57409            0 
Loop time of 44.1995 on 4 procs for 5000 steps with 174608 atoms

Performance: 48869.375 tau/day, 113.124 timesteps/s
240.5% CPU use with 1 MPI tasks x 4 OpenMP threads

MPI task timing breakdown:
Section |  min time  |  avg time  |  max time  |%varavg| %total
---------------------------------------------------------------
Pair    | 15.086     | 15.086     | 15.086     |   0.0 | 34.13
Neigh   | 0.259      | 0.259      | 0.259      |   0.0 |  0.59
Comm    | 3.801      | 3.801      | 3.801      |   0.0 |  8.60
Output  | 0.13636    | 0.13636    | 0.13636    |   0.0 |  0.31
Modify  | 22.166     | 22.166     | 22.166     |   0.0 | 50.15
Other   |            | 2.751      |            |       |  6.22

Nlocal:    174608 ave 174608 max 174608 min
Histogram: 1 0 0 0 0 0 0 0 0 0
Nghost:    66634 ave 66634 max 66634 min
Histogram: 1 0 0 0 0 0 0 0 0 0
Neighs:    0 ave 0 max 0 min
Histogram: 1 0 0 0 0 0 0 0 0 0

Total # of neighbors = 0
Ave neighs/atom = 0
Neighbor list builds = 620
Dangerous builds = 0

reset_timestep 0
fix vx all ave/chunk 10 100000 1000000 chunk vx ave running file velocity_l.txt

fix dt all dt/reset 10 NULL NULL 0.05 units box

run 1000000
No /omp style for force computation currently active
Per MPI rank memory allocation (min/avg/max) = 95.09 | 95.09 | 95.09 Mbytes
Step Time Temp c_mean_displacement v_volume v_force c_vmax Dt S/CPU CPULeft 
       0           25    0.3153328    0.2505359 0.0098498215          0.1    6.2744196 0.0077758328            0            0 
     100    25.776207   0.31481768   0.25769134 0.0098498215          0.1    6.3768643 0.0076062287    94.500531    10580.893 
     200    26.536775   0.31497353   0.26439699 0.0098498215          0.1    6.2599905 0.0075693435    95.272756    10536.963 
     300    27.285205   0.31653453   0.27102156 0.0098498215          0.1    6.4300407 0.0073884199      94.8503    10537.195 
     400    28.015507   0.31738563   0.27741871 0.0098498215          0.1    6.5852016   0.00725976    95.818753    10510.152 
     500    28.692237   0.31875437   0.28376646 0.0098498215          0.1    6.9511823 0.0064643972    96.848742    10471.326 
     600    29.330413   0.31930807   0.29087409 0.0098498215          0.1    7.2117555 0.0063034103    95.711351    10465.534 
     700    29.958122   0.32097861   0.29781353 0.0098498215          0.1    7.3352877 0.0062327685    94.611142    10478.443 
     800    30.577381   0.32142321   0.30494287 0.0098498215          0.1    7.4866911 0.0061310927    94.936284    10483.339 
     900    31.186609   0.32191905   0.31126887 0.0098498215          0.1    7.6255441 0.0060470906    93.215684    10508.497 
    1000    31.787688   0.32325449   0.31721067 0.0098498215          0.1      7.74576 0.0059669873    94.228507     10516.89 
    1100     32.38089   0.32342389   0.32369299 0.0098498215          0.1    7.8645196 0.0058893464      94.4205    10521.603 
    1200    32.966201   0.32422047   0.32955767 0.0098498215          0.1    7.4538844 0.0060428779    95.779937    10512.844 
    1300    33.570094   0.32399099   0.33640922 0.0098498215          0.1    7.5610486 0.0060103004    96.145518    10502.221 
    1400    34.168015   0.32521945   0.34338263 0.0098498215          0.1    7.8733423 0.0059423069    95.078557    10501.293 
    1500    34.759176   0.32542199   0.35032204 0.0098498215          0.1    7.9762884 0.0058768768     95.13398     10499.94 
    1600     35.34422   0.32603986   0.35624355 0.0098498215          0.1    8.0787104  0.005814996     95.38744    10496.881 
    1700    35.921987   0.32719481   0.36259791 0.0098498215          0.1    8.1942639 0.0057273362    95.044128    10496.284 
    1800    36.486643   0.32717162   0.36863686 0.0098498215          0.1    8.3056663 0.0055958448    95.945905    10490.152 
    1900    37.043585    0.3279243   0.37528346 0.0098498215          0.1    8.4215502 0.0055365828    95.393254    10487.727 
    2000    37.596234   0.32735444   0.38140361 0.0098498215          0.1       8.5371 0.0057219816    94.526982    10490.235 
    2100     38.17103   0.32684893   0.38735367 0.0098498215          0.1    8.6496618  0.005720233    94.617503    10491.921 
    2200    38.739768   0.32801626   0.39246821 0.0098498215          0.1    8.7634139  0.005647394     96.03879    10486.264 
    2300    39.300808    0.3282775   0.39753165 0.0098498215          0.1    8.8596489 0.0055806095     95.61718    10483.001 
    2400    39.853359   0.32897728   0.40318979 0.0098498215          0.1    9.0433958 0.0054394383    95.772413    10479.217 
    2500    40.399651   0.32928878    0.4084389 0.0098498215          0.1    8.8787744 0.0054495492    96.409345      10472.9 
    2600    40.938772   0.33001328   0.41407634 0.0098498215          0.1    9.0004915 0.0054485823    95.489267    10470.823 
    2700    41.481888   0.32886995    0.4198719 0.0098498215          0.1    8.8577363 0.0054032514     96.41165    10465.122 
    2800    42.019521   0.32965769   0.42580553 0.0098498215          0.1    8.9652629  0.005343784    95.038076    10465.093 
    2900    42.549788   0.32892859   0.43111088 0.0098498215          0.1    9.0702464 0.0052879977    95.869192    10461.857 
    3000    43.075491   0.33070265    0.4356419 0.0098498215          0.1    9.1999572  0.005186945    93.685593    10466.847 
    3100    43.586796    0.3303088   0.44041736 0.0098498215          0.1    8.6658749 0.0050894202    96.302739    10462.117 
    3200    44.094976   0.33085122   0.44470387 0.0098498215          0.1    8.5830199 0.0050781711    95.903388    10458.965 
    3300    44.605946   0.33078404   0.44939113 0.0098498215          0.1    8.6837617 0.0053066452    95.840254    10456.149 
    3400     45.13896   0.33028872   0.45472748 0.0098498215          0.1    8.9963532 0.0054020283    96.086753    10452.652 
    3500    45.676331    0.3307506    0.4588067 0.0098498215          0.1    9.1299785 0.0053213121    95.079914    10452.433 
    3600    46.204928   0.33190722   0.46305134 0.0098498215          0.1    8.9824675  0.005425923     95.77939    10450.043 
    3700    46.747676   0.33226965   0.46752046 0.0098498215          0.1    8.9735188 0.0054036627    96.183529    10446.543 
    3800     47.28536   0.33190509   0.47103931 0.0098498215          0.1    9.1457884 0.0053444062    94.743345    10447.316 
    3900    47.814919   0.33099638   0.47502402 0.0098498215          0.1    9.2084697 0.0052810526    96.634978    10442.719 
    4000     48.34062   0.33200026   0.47818674 0.0098498215          0.1    9.1413066 0.0052316352     94.14716    10445.108 
    4100    48.860226   0.33245666   0.48250938 0.0098498215          0.1     9.251131 0.0051251297    95.188949    10444.506 
    4200    49.392864   0.33167483   0.48638008 0.0098498215          0.1    9.2078455 0.0053498977    96.112184    10441.489 
    4300    49.925165    0.3325462   0.49004693 0.0098498215          0.1    9.3143058 0.0052905139    94.943225    10441.531 
    4400     50.45086   0.33172688   0.49438658 0.0098498215          0.1    9.2367538 0.0052669977    96.112999    10438.622 
    4500    50.974931   0.33150141   0.49830731 0.0098498215          0.1    9.4049928 0.0051667221    94.182528    10440.514 
    4600    51.510589   0.33138793   0.50199465 0.0098498215          0.1    8.8840531 0.0053435048      96.4802    10436.806 
    4700    52.041286    0.3321483   0.50549117 0.0098498215          0.1    8.9895952 0.0052681791    94.509666    10437.788 
    4800    52.566201   0.33295345   0.50899281 0.0098498215          0.1    9.0945781 0.0052261844    95.268839    10436.937 
    4900    53.086423   0.33202634   0.51332535 0.0098498215          0.1    9.1977922 0.0051732285    94.432893    10437.965 
    5000    53.601417   0.33133797   0.51709371 0.0098498215          0.1    9.3233088  0.005126432    94.058972    10439.747 
    5100    54.111585   0.33163111   0.52025972 0.0098498215          0.1    9.4495316  0.005069343    93.166342    10443.405 
    5200    54.610497   0.33180754   0.52329327 0.0098498215          0.1     9.132584 0.0048883876    96.188161     10440.43 
    5300     55.09739   0.33134779   0.52582783 0.0098498215          0.1    8.9948401 0.0048570222    94.981646    10440.006 
    5400    55.560902   0.33167177   0.52900048 0.0098498215          0.1    9.0735892 0.0051606563    96.712631    10436.088 
    5500    56.074387   0.33226998   0.53193629 0.0098498215          0.1    9.3312247 0.0050255889     95.13644    10435.373 
    5600    56.592574   0.33157601   0.53502503 0.0098498215          0.1    8.7191492 0.0052055795    97.929961    10429.322 
    5700    57.111305   0.33243359   0.53827366 0.0098498215          0.1    8.8300329 0.0050585499     94.07106    10430.753 
    5800    57.640583   0.33238716   0.54166004 0.0098498215          0.1    8.9350145 0.0052901918    95.675568    10429.043 
    5900    58.167216   0.33114912   0.54471183 0.0098498215          0.1    8.9658199  0.005237437    95.438142    10427.794 
    6000    58.688117   0.33217668   0.54761972 0.0098498215          0.1    9.0719126 0.0051958577     94.28733     10428.67 
    6100    59.204824   0.33243567   0.55064026 0.0098498215          0.1    9.1696661 0.0051323061    93.897507      10430.2 
    6200    59.715882   0.33238409   0.55339899 0.0098498215          0.1    9.2117034 0.0050841878    94.615518    10430.351 
    6300    60.222178   0.33321347   0.55573222 0.0098498215          0.1    9.3129626  0.005037236    94.965689    10429.848 
    6400    60.723832   0.33225838   0.55830969 0.0098498215          0.1    9.4132935 0.0049911684    95.207358    10428.914 
    6500     61.21677   0.33269091   0.56148026 0.0098498215          0.1    9.6586762 0.0048535654    96.191117    10426.334 
    6600    61.706341   0.33234823   0.56415446 0.0098498215          0.1    10.110647 0.0049248567    96.065076    10424.006 
    6700    62.197447    0.3319034    0.5666715 0.0098498215          0.1    10.206614 0.0048905897    94.411594    10424.419 
    6800    62.685851   0.33248386   0.56948077 0.0098498215          0.1    10.231911 0.0048803705    95.800939    10422.546 
    6900    63.205212   0.33307091   0.57259966 0.0098498215          0.1    9.0230655  0.005400878     94.45769    10422.833 
    7000    63.744951   0.33239656   0.57583621 0.0098498215          0.1    9.1667657 0.0053676975     96.21806    10420.334 
    7100    64.260357   0.33082427   0.57922254 0.0098498215          0.1    9.2611188 0.0049828833    95.269575    10419.323 
    7200    64.756664   0.33237106   0.58246011 0.0098498215          0.1    9.3351708 0.0049464512    94.063465    10420.166 
    7300    65.249507   0.33268499   0.58521729 0.0098498215          0.1    9.4119569 0.0048939317     93.85979    10421.271 
    7400    65.732854   0.33181441   0.58803006 0.0098498215          0.1    9.5180574  0.004763293    94.995995    10420.609 
    7500    66.206748    0.3318278   0.59114813 0.0098498215          0.1    9.6259938 0.0047183253    95.025867    10419.892 
    7600    66.676735   0.33379151   0.59401268 0.0098498215          0.1    9.7188639 0.0046691494    95.589243    10418.356 
    7700    67.134237   0.33255533   0.59682124 0.0098498215          0.1    10.340012 0.0045289431     96.94083    10414.953 
    7800    67.585517   0.33217917   0.59985849 0.0098498215          0.1     10.43385 0.0044934151    95.520387    10413.563 
    7900    68.033345   0.33242852   0.60290763 0.0098498215          0.1    10.523324 0.0044599868    95.117691    10412.738 
    8000    68.477854   0.33300482   0.60521476 0.0098498215          0.1    10.612226 0.0044270166    95.315451    10411.636 
    8100    68.919279   0.33229398   0.60787674 0.0098498215          0.1    10.954766 0.0044649498    93.773795    10412.649 
    8200    69.366427   0.33183731   0.61089811 0.0098498215          0.1    10.960339 0.0044557867    92.882678    10414.847 
    8300    69.797765   0.33203874   0.61315506 0.0098498215          0.1    11.955921 0.0041748351    93.294618    10416.399 
    8400     70.21395   0.33252463   0.61588666 0.0098498215          0.1    12.039158 0.0041460691    91.795934    10419.955 
    8500    70.627284   0.33144476   0.61881232 0.0098498215          0.1    12.121824 0.0041178891    93.997062    10420.425 
    8600    71.037825   0.33273542   0.62114536 0.0098498215          0.1    12.203933 0.0040902756    95.460297     10418.98 
    8700    71.445631   0.33282169   0.62374368 0.0098498215          0.1    12.288148 0.0040622477    94.467136    10418.799 
    8800    71.850863   0.33102057   0.62640422 0.0098498215          0.1     12.35655 0.0040395244    95.889422    10416.829 
    8900    72.253634   0.33317879    0.6284814 0.0098498215          0.1    12.437762 0.0040132092    95.262239    10415.645 
    9000    72.653817   0.33330129   0.63087537 0.0098498215          0.1    12.517343 0.0039876977    93.664442    10416.435 
    9100    73.051475   0.33254201   0.63402423 0.0098498215          0.1    12.595833 0.0039628752     94.81773    10415.771 
    9200    73.446522   0.33327486    0.6367046 0.0098498215          0.1    12.733112 0.0039199102    95.258605    10414.572 
    9300    73.839071   0.33289987   0.63897897 0.0098498215          0.1    12.778096 0.0039048922      96.8795    10411.506 
    9400    74.241591   0.33258503   0.64109071 0.0098498215          0.1    12.225997 0.0040363138    97.173328    10408.154 
    9500    74.643965    0.3323985   0.64363103 0.0098498215          0.1    12.324344 0.0040014629    95.358423    10406.893 
    9600    75.042987   0.33251496   0.64624768 0.0098498215          0.1    12.377199 0.0039710901    95.205738     10405.81 
    9700    75.439159   0.33302508   0.64838848 0.0098498215          0.1     12.62999 0.0039462849    98.014039    10401.655 
    9800    75.835544   0.33191476    0.6507169 0.0098498215          0.1    11.557289  0.003955613    96.361104    10399.333 
    9900    76.231242   0.33228489   0.65325285 0.0098498215          0.1    11.633273 0.0039477265    97.099743    10396.246 
   10000    76.624225   0.33128524   0.65629129 0.0098498215          0.1    11.656058 0.0039186741    96.615078    10393.713 
   10100    77.015059   0.33235766   0.65836656 0.0098498215          0.1    11.767432 0.0038982246    95.796912    10392.075 
   10200    77.403613   0.33243729   0.66051208 0.0098498215          0.1    11.903056 0.0038691821    95.793696    10390.453 
   10300    77.789711   0.33311001   0.66247121 0.0098498215          0.1     11.98177 0.0038496848    95.484441    10389.167 
   10400    78.173732   0.33255383   0.66508354 0.0098498215          0.1    12.058534 0.0038285086    95.141144    10388.245 
   10500    78.572616   0.33268203   0.66780996 0.0098498215          0.1    9.3357421 0.0046364469    97.147084    10385.275 
   10600    79.034717   0.33224224   0.67076018 0.0098498215          0.1    9.4281304 0.0046022603    95.381171     10384.12 
   10700    79.493429    0.3311624   0.67402915 0.0098498215          0.1    9.5198729 0.0045687393     95.64426    10382.701 
   10800    79.946998   0.33299877   0.67668227 0.0098498215          0.1    9.6797235 0.0045127616    96.600347    10380.342 
   10900    80.396667   0.33237771   0.67944113 0.0098498215          0.1    9.7769851 0.0044546073    95.604125    10378.985 
   11000    80.849574   0.33208644   0.68210101 0.0098498215          0.1    9.5118146  0.004517696    96.586622    10376.677 
   11100     81.30059   0.33161349   0.68480846 0.0098498215          0.1    9.5730642 0.0044983787    95.531526    10375.411 
   11200    81.747735    0.3330063   0.68717521 0.0098498215          0.1    9.5981875 0.0044428753    96.737703    10372.997 
   11300    82.237189    0.3328854   0.69007671 0.0098498215          0.1    9.3215935 0.0053040821    96.392706     10370.93 
   11400    82.764957   0.33285222   0.69363043 0.0098498215          0.1    9.4274585 0.0052458698    95.548305    10369.677 
   11500     83.28698   0.33279951   0.69685862 0.0098498215          0.1    9.5331828 0.0051892383    96.195088    10367.823 
   11600    83.825399   0.33327238   0.69998415 0.0098498215          0.1    8.5367059  0.005823721       96.851    10365.382 
   11700    84.404635   0.33287239   0.70357333 0.0098498215          0.1    8.6520614 0.0057505313    94.812779    10364.841 
   11800    84.976322    0.3340529   0.70643763 0.0098498215          0.1    8.7663987  0.005676251    95.861392    10363.325 
   11900    85.540335   0.33345745   0.70977053 0.0098498215          0.1    8.9848442 0.0055365702    95.842992    10361.833 
   12000    86.120527    0.3326183   0.71303565 0.0098498215          0.1     8.383836 0.0059182931    96.844426    10359.461 
   12100    86.708467   0.33253823   0.71656067 0.0098498215          0.1    8.5341929 0.0058199852    95.092546    10358.664 
   12200    87.287476   0.33271443   0.71932436 0.0098498215          0.1    8.6447135 0.0057489003    95.908191    10357.138 
   12300    87.858991   0.33301353   0.72195508 0.0098498215          0.1    8.7638546 0.0056721307    95.554422    10355.931 
   12400    88.424717   0.33298275   0.72490572 0.0098498215          0.1    8.8319667 0.0056377092    96.820506    10353.636 
   12500    88.985555   0.33383465   0.72791174 0.0098498215          0.1    8.9145297 0.0055784979    95.734923    10352.286 
   12600    89.547522   0.33262968   0.73130805 0.0098498215          0.1     8.353122 0.0056637668    96.727508    10350.101 
   12700    90.111497    0.3324553   0.73456424 0.0098498215          0.1     8.493443 0.0056423956    97.214138    10347.533 
   12800    90.672824   0.33196315   0.73766154 0.0098498215          0.1    8.4549705 0.0056234851    96.940449    10345.212 
   12900    91.233016   0.33275252   0.74029153 0.0098498215          0.1    8.5405571 0.0055679627    95.732716    10343.907 
   13000    91.786825   0.33183308   0.74372847 0.0098498215          0.1    8.6407764  0.005493128    95.438619     10342.85 
   13100    92.343473    0.3314136   0.74670297 0.0098498215          0.1    7.7470553 0.0056986257     95.71714    10341.564 
   13200     92.91451    0.3327934   0.74953053 0.0098498215          0.1    7.8413605 0.0057137603    97.598493    10338.776 
   13300    93.484245   0.33173187    0.7524428 0.0098498215          0.1    7.2423023 0.0056791605    95.494833    10337.689 
   13400    94.050575   0.33301601   0.75502969 0.0098498215          0.1    6.4393049 0.0056430983    95.625507    10336.497 
   13500    94.613035   0.33235585   0.75873475 0.0098498215          0.1    6.4952283 0.0056008052    96.056958    10334.964 
   13600     95.17037   0.33215442    0.7619333 0.0098498215          0.1    6.6105172   0.00550056      95.9092    10333.555 
   13700    95.829889   0.33274905   0.76590997 0.0098498215          0.1    6.7566729 0.0067403111     98.71336    10330.018 
   13800    96.503803   0.33242449   0.76980825 0.0098498215          0.1    6.8951022 0.0067608779    97.938308    10327.092 
   13900    97.179603   0.33333928   0.77365709 0.0098498215          0.1     7.025363 0.0067332987    97.659576    10324.399 
   14000    97.853448   0.33496914   0.77672724 0.0098498215          0.1     7.160132 0.0068693261    95.096815    10323.674 
   14100    98.511645   0.33282483   0.78048109 0.0098498215          0.1    7.2981906 0.0064640519    94.877742    10323.113 
   14200    99.174757   0.33189729   0.78440327 0.0098498215          0.1    7.4215746 0.0066255475    94.782504     10322.62 
   14300    99.831564   0.33185841   0.78884042 0.0098498215          0.1     7.553854 0.0064915828      94.9235     10322.01 
   14400     100.5168   0.33228659   0.79359295 0.0098498215          0.1    6.7343877  0.006965819    96.340786    10320.334 
   14500    101.20774   0.33146316   0.79748863 0.0098498215          0.1    6.8654344 0.0068409473    94.845346    10319.779 
   14600    101.88477   0.33298323   0.80174313 0.0098498215          0.1    7.1056238 0.0066315936    95.126385    10319.006 
   14700     102.5589   0.33173538   0.80597055 0.0098498215          0.1    6.9892358  0.006737354    97.576968     10316.46 
   14800    103.22753   0.33286998     0.809158 0.0098498215          0.1     7.122961 0.0066248103    95.343878    10315.533 
   14900    103.88514    0.3316245   0.81293033 0.0098498215          0.1    7.2544832 0.0065175143      95.9296    10314.181 
   15000    104.53224   0.33196959   0.81648729 0.0098498215          0.1     7.383932 0.0064146935    94.477605    10313.884 
   15100     105.1692   0.33173886   0.82045657 0.0098498215          0.1    7.5250409  0.006298985    94.424793    10313.617 
   15200    105.79255    0.3316475   0.82422191 0.0098498215          0.1    7.3055723 0.0064787684    96.935856    10311.561 
   15300      106.435   0.33193117   0.82834763 0.0098498215          0.1    7.4888859  0.006362629     95.97618    10310.183 
   15400    107.07312   0.33183007   0.83239687 0.0098498215          0.1    7.5374299 0.0063439831    96.500134    10308.447 
   15500    107.70622   0.33142506   0.83704841 0.0098498215          0.1    7.6361874 0.0063435644    96.644508    10306.622 
   15600    108.33512    0.3319097    0.8408031 0.0098498215          0.1    7.6189277 0.0063605277    95.488463    10305.598 
   15700    108.97234   0.33227226   0.84432198 0.0098498215          0.1    7.4738696  0.006419871    96.266313    10304.043 
   15800    109.60405    0.3335907   0.84830931 0.0098498215          0.1      7.60021 0.0060770329    96.251026    10302.505 
   15900    110.20913   0.33280965   0.85247415 0.0098498215          0.1    7.7216965 0.0060102487    95.742157    10301.314 
   16000    110.81196   0.33321396   0.85605816 0.0098498215          0.1    7.8119713 0.0063140616    95.468837     10300.31 
   16100    111.43912   0.33333495   0.85911926 0.0098498215          0.1    7.9348204 0.0062190345    94.433701    10300.006 
   16200    112.05683   0.33432011   0.86281199 0.0098498215          0.1    8.0422602 0.0061321917    95.261158    10299.135 
   16300     112.6659   0.33211161    0.8668676 0.0098498215          0.1    8.1660787 0.0060400568    95.418102    10298.157 
   16400    113.26562   0.33303058   0.86999788 0.0098498215          0.1    8.3811905 0.0058886047    94.819723    10297.576 
   16500    113.88496    0.3335402   0.87350824 0.0098498215          0.1    7.9563778 0.0062579956    96.386371    10295.966 
   16600    114.50512   0.33287414   0.87699159 0.0098498215          0.1    8.0756462 0.0061654303    95.678405    10294.818 
   16700     115.1178   0.33223486   0.88044521 0.0098498215          0.1     8.206553 0.0060673162    95.950865    10293.497 
   16800    115.71608   0.33245861   0.88309918 0.0098498215          0.1      8.40573 0.0059339035    95.384533    10292.541 
   16900    116.30778   0.33115284   0.88613554 0.0098498215          0.1    8.4614155 0.0058938651    95.574257    10291.464 
   17000    116.89355   0.33174383   0.88948392 0.0098498215          0.1     8.578354 0.0058138927    93.073805    10292.011 
   17100    117.47145   0.33310775    0.8925667 0.0098498215          0.1    8.6939346  0.005736983    89.864149    10294.746 
   17200    118.04058   0.33219454    0.8963425 0.0098498215          0.1    8.9119631 0.0055844556     94.52858    10294.298 
   17300    118.60128   0.33153925    0.8998417 0.0098498215          0.1    8.9067005 0.0055743917    95.731056    10293.089 
   17400    119.15429    0.3321003   0.90331011 0.0098498215          0.1    9.0354788 0.0055050753    96.447454    10291.443 
   17500    119.70199   0.33267769   0.90702194 0.0098498215          0.1    9.1428717 0.0054417623    95.088407    10290.636 
   17600    120.24326    0.3320427   0.91071625 0.0098498215          0.1    9.2530619 0.0053779114     95.63787    10289.489 
   17700    120.77816   0.33252498   0.91364331 0.0098498215          0.1    9.3727973 0.0053095116     95.07013     10288.69 
   17800    121.30293   0.33186303   0.91728142 0.0098498215          0.1    9.4744315 0.0052285989    96.274201    10287.162 
   17900    121.82407     0.332007   0.92101155 0.0098498215          0.1    9.5600886 0.0051830642    95.250795    10286.252 
   18000    122.33991   0.33361654   0.92404056 0.0098498215          0.1    9.6635276 0.0051286857    93.785474    10286.235 
   18100    122.84908   0.33302315   0.92731415 0.0098498215          0.1    9.8407155 0.0050433925    94.542984    10285.743 
   18200    123.35119    0.3321726   0.93053723 0.0098498215          0.1    9.9432605 0.0049925262    95.615283    10284.605 
   18300    123.84855   0.33219009   0.93367169 0.0098498215          0.1    9.9684434 0.0049657804     96.86111    10282.747 
   18400    124.34297   0.33140376   0.93638893 0.0098498215          0.1    10.067467 0.0049180689    95.014501    10281.968 
   18500    124.83268   0.33235161   0.93858426 0.0098498215          0.1    10.165408 0.0048715911    95.809758    10280.722 
   18600    125.31684   0.33305979   0.94104375 0.0098498215          0.1     10.37458 0.0047858423     96.06204    10279.334 
   18700    125.79433   0.33167495   0.94431452 0.0098498215          0.1    9.2819709 0.0053514689     95.79781      10278.1 
   18800    126.29566   0.33198073    0.9475012 0.0098498215          0.1    9.2828137 0.0049571709    95.525869    10277.024 
   18900    126.78937   0.33243307   0.95035198 0.0098498215          0.1    9.3815566 0.0049128711    95.706503    10275.845 
   19000    127.27871   0.33333387   0.95262652 0.0098498215          0.1    9.4794234 0.0048696713    94.386907    10275.422 
   19100    127.76376    0.3311134   0.95570901 0.0098498215          0.1    9.5755713 0.0048239611    94.117035    10275.148 
   19200    128.24434   0.33373485   0.95852572 0.0098498215          0.1    9.6601915 0.0047837252    95.342144    10274.168 
   19300    128.72091    0.3322444   0.96171179 0.0098498215          0.1    9.7555043 0.0047437159    95.505966    10273.097 
   19400    129.19354   0.33202899   0.96446193 0.0098498215          0.1    9.8435309 0.0047053556    95.090757    10272.256 
   19500    129.66841   0.33151267   0.96689062 0.0098498215          0.1    8.6019679 0.0049008725    96.554071    10270.612 
   19600    130.16113   0.33230984   0.96960463 0.0098498215          0.1    8.7431459 0.0049182075    95.949131    10269.301 
   19700    130.67543   0.33363937   0.97254417 0.0098498215          0.1    9.0466045 0.0053511116    95.677117    10268.141 
   19800    131.21768   0.33362891   0.97571703 0.0098498215          0.1     8.526581 0.0054199282    97.223963    10266.158 
   19900    131.75733   0.33281227    0.9789235 0.0098498215          0.1    8.6300218 0.0053653736     94.05391    10265.892 
   20000    132.29132   0.33150753   0.98236183 0.0098498215          0.1     8.736819 0.0053089807    95.205176    10264.988 
   20100    132.81969    0.3330886   0.98519065 0.0098498215          0.1    8.8403096  0.005253971    93.937127    10264.774 
   20200    133.34272   0.33360728   0.98764794 0.0098498215          0.1    8.9441323 0.0052012156    94.852982    10264.053 
   20300     133.8605   0.33364875   0.99034169 0.0098498215          0.1    9.0476894 0.0051495626    95.327431    10263.075 
   20400    134.37319   0.33250649   0.99271068 0.0098498215          0.1    9.1502263 0.0050993448    95.942042    10261.774 
   20500    134.88091   0.33383425   0.99504064 0.0098498215          0.1    9.2517714 0.0050504993    95.184693    10260.872 
   20600    135.38381   0.33316943   0.99791451 0.0098498215          0.1    9.3523515 0.0050029666    95.354607    10259.879 
   20700     135.8818   0.33285874    1.0004073 0.0098498215          0.1    9.4696766 0.0049531804    95.546215    10258.787 
   20800    136.42583   0.33195648    1.0030735 0.0098498215          0.1    7.6128036  0.006143272    96.099698    10257.411 
   20900    137.04011    0.3329877    1.0058684 0.0098498215          0.1    7.7356609 0.0061505593    97.022387    10255.574 
   21000     137.6521     0.332759    1.0091174 0.0098498215          0.1    7.8598661 0.0060421898    95.557252    10254.482 
   21100     138.2642   0.33288957    1.0129567 0.0098498215          0.1    7.6277767 0.0061240096    95.279011    10253.532 
   21200    138.87506   0.33347339    1.0167153 0.0098498215          0.1    7.5705041 0.0065283693    96.710223    10251.864 
   21300    139.52335   0.33342334    1.0207961 0.0098498215          0.1    7.7004006 0.0064243407    95.131628    10250.991 
   21400    140.16028   0.33264784    1.0241651 0.0098498215          0.1      7.84686  0.006312598     94.91611    10250.225 
   21500    140.78712   0.33163001    1.0284435 0.0098498215          0.1    7.9722273 0.0062151282      96.1656    10248.833 
   21600    141.40351   0.33321507    1.0325023 0.0098498215          0.1    8.0926801 0.0061238591    96.539803    10247.262 
   21700    142.01185   0.33149886     1.036057 0.0098498215          0.1    8.2143486 0.0060347146    96.032699    10245.943 
   21800    142.60936    0.3325469    1.0389546 0.0098498215          0.1    8.3338507 0.0059442045    96.434526    10244.431 
   21900    143.20056   0.33314112    1.0426594 0.0098498215          0.1      8.45209 0.0058677487    95.487093    10243.383 
   22000    143.78372   0.33222176    1.0461243 0.0098498215          0.1      8.57405 0.0057848825    94.510007    10242.817 
   22100    144.35076   0.33259726    1.0495499 0.0098498215          0.1    8.5635129 0.0055782723    95.407553    10241.805 
   22200    144.90563   0.33071946    1.0532149 0.0098498215          0.1    8.6759586 0.0055118195    95.830794     10240.59 
   22300    145.45943   0.33217155    1.0568875 0.0098498215          0.1    8.7775479 0.0055825337    96.291154    10239.157 
   22400    146.01324   0.33328548    1.0599884 0.0098498215          0.1    8.9363596 0.0055070034     95.63521    10238.039 
   22500    146.56101   0.33300928    1.0639239 0.0098498215          0.1    9.0479812  0.005440723     95.55096    10236.961 
   22600    147.10286   0.33376394    1.0677948 0.0098498215          0.1     9.083714 0.0054007624    96.445214    10235.464 
   22700    147.64008   0.33207003    1.0721398 0.0098498215          0.1    9.1945762 0.0053190137    94.999867     10234.65 
   22800    148.16822    0.3323381    1.0759702 0.0098498215          0.1    9.4366143 0.0052349052    96.899219     10232.95 
   22900    148.69053    0.3323989    1.0792122 0.0098498215          0.1      9.39523 0.0051762561    95.999707    10231.668 
   23000    149.24458   0.33337535    1.0827652 0.0098498215          0.1    7.0486991 0.0057309549    96.321758     10230.24 
   23100    149.81637   0.33256638    1.0868884 0.0098498215          0.1    7.1649187 0.0057018137     95.24489    10229.312 
   23200    150.38746   0.33300945    1.0906345 0.0098498215          0.1    7.1648353 0.0059711585    95.180892    10228.413 
   23300    150.98798   0.33275256    1.0948289 0.0098498215          0.1    7.1851512 0.0062569588    96.068684    10227.105 
   23400    151.62249   0.33312672    1.0988763 0.0098498215          0.1    7.3008554 0.0067472713    95.950514    10225.853 
   23500    152.29036   0.33264784    1.1034095 0.0098498215          0.1    7.4422309 0.0066248939     95.35916    10224.872 
   23600    152.94609   0.33328662    1.1079083 0.0098498215          0.1    7.1604532  0.006409568    95.717686    10223.727 
   23700    153.59355   0.33397212    1.1116933 0.0098498215          0.1    7.2910755  0.006497993     97.51245    10221.792 
   23800    154.24046   0.33402079    1.1154672 0.0098498215          0.1    7.1087751  0.006433982    94.922941    10221.011 
   23900    154.88034   0.33390265    1.1194634 0.0098498215          0.1    7.2540514  0.006339485    95.533985    10219.953 
   24000    155.51312   0.33249698    1.1241899 0.0098498215          0.1     7.346507 0.0063795418    95.541362    10218.891 
   24100    156.13547   0.33368626     1.127571 0.0098498215          0.1    7.4681998 0.0062014075     97.59059     10216.94 
   24200    156.76595   0.33242696    1.1317069 0.0098498215          0.1     7.608547 0.0064195445    96.477138    10215.474 
   24300    157.40044   0.33278582     1.135056 0.0098498215          0.1    7.8456524 0.0059509696    96.680485    10213.923 
   24400    157.99329   0.33301038     1.138369 0.0098498215          0.1    7.8693881 0.0058835524    94.925648    10213.141 
   24500    158.58298   0.33200899    1.1416482 0.0098498215          0.1    7.9873273  0.006034101    96.394833    10211.718 
   24600    159.18488   0.33096853    1.1449964 0.0098498215          0.1    8.1077058 0.0059887155    94.563362    10211.094 
   24700    159.78805   0.33203565    1.1482988 0.0098498215          0.1    8.2269144 0.0060702758    96.692253    10209.547 
   24800     160.3912   0.33363573     1.151624 0.0098498215          0.1    8.3459611 0.0059838411    95.697179    10208.428 
   24900    160.98583   0.33358472    1.1549586 0.0098498215          0.1    8.4602647 0.0059031741    94.570781    10207.797 
   25000    161.56938    0.3331398    1.1584123 0.0098498215          0.1    8.3095504  0.005907446    94.789059    10207.067 
   25100    162.15648   0.33206317    1.1621911 0.0098498215          0.1    8.3201767  0.005836763     95.96239    10205.833 
   25200    162.73676    0.3322889    1.1654199 0.0098498215          0.1     8.493722   0.00576056    94.626447     10205.17 
   25300    163.30143   0.33327529    1.1683538 0.0098498215          0.1    8.8867164 0.0055941568    96.048379    10203.902 
   25400     163.8623   0.33215345    1.1714652 0.0098498215          0.1    8.9146583  0.005583822    97.185419    10202.167 
   25500    164.41768   0.33261208    1.1742151 0.0098498215          0.1    9.0242938 0.0055166044    95.565111    10201.105 
   25600    164.96629   0.33240089    1.1778381 0.0098498215          0.1    9.1469347 0.0054448258    96.348398     10199.72 
   25700    165.50759   0.33302098    1.1803638 0.0098498215          0.1    9.2462324 0.0053560588    95.843911    10198.544 
   25800    166.04331    0.3333483    1.1836523 0.0098498215          0.1    9.3533774 0.0053269089    96.081228    10197.272 
   25900    166.57332   0.33295804    1.1865518 0.0098498215          0.1    9.4593787 0.0052676269    94.490631     10196.66 
   26000    167.09748   0.33292625    1.1893187 0.0098498215          0.1    9.5642174  0.005210212    94.980915    10195.841 
   26100     167.6168   0.33309011    1.1924008 0.0098498215          0.1    9.6277789 0.0051721431    94.676984    10195.145 
   26200     168.1315   0.33191442    1.1956396 0.0098498215          0.1    9.7318485 0.0051170837    94.515182    10194.515 
   26300    168.64081   0.33258041    1.1987093 0.0098498215          0.1    9.8318651 0.0050645374    95.012607    10193.675 
   26400    169.14463   0.33227825    1.2009804 0.0098498215          0.1    9.9469886 0.0049983253    95.028666    10192.828 
   26500    169.64234   0.33272296    1.2033474 0.0098498215          0.1    10.027758 0.0049260036    95.231396    10191.897 
   26600    170.20142   0.33293702    1.2059279 0.0098498215          0.1     8.282686 0.0059028973    96.152439    10190.597 
   26700    170.77074   0.33296696    1.2088635 0.0098498215          0.1    7.2723877 0.0058829233    96.506661     10189.16 
   26800    171.43073   0.33259815    1.2126468 0.0098498215          0.1    7.3882864 0.0065934971    96.030676    10187.912 
   26900    172.09274   0.33179983    1.2157807 0.0098498215          0.1    7.7639367 0.0064112481    95.059378    10187.051 
   27000     172.7119   0.33193293    1.2194208 0.0098498215          0.1    6.4441853 0.0065345497    95.390629    10186.056 
   27100    173.38876   0.33224272    1.2233455 0.0098498215          0.1     6.616732 0.0069590804    97.505899    10184.245 
   27200    174.09893   0.33366627    1.2274973 0.0098498215          0.1    6.5670733 0.0073889111    98.005107    10182.252 
   27300    174.82969   0.33226739    1.2318102 0.0098498215          0.1    6.2037476 0.0071810871    95.221213     10181.33 
   27400    175.55623   0.33176253    1.2357918 0.0098498215          0.1    6.1612179 0.0072487955    96.872765    10179.771 
   27500    176.27867    0.3327769    1.2387465 0.0098498215          0.1    6.2975919 0.0071761916    95.887296    10178.592 
   27600    176.99053   0.33174127    1.2423029 0.0098498215          0.1    6.4393569 0.0070585367    95.487267    10177.567 
   27700    177.69057    0.3316748    1.2456255 0.0098498215          0.1     6.577436 0.0069517288    94.918086    10176.762 
   27800    178.38101   0.33167411    1.2488289 0.0098498215          0.1    6.7152715  0.006840484    95.635755    10175.679 
   27900    179.05991   0.33173626    1.2521218 0.0098498215          0.1    6.8510524 0.0067271403    93.840681    10175.294 
   28000    179.72548     0.331759    1.2558617 0.0098498215          0.1    7.1390067 0.0066187764    94.897277    10174.491 
   28100    180.40708   0.33208271     1.259622 0.0098498215          0.1    7.2810257 0.0068155259    95.147295    10173.591 
   28200    181.08529   0.33103906    1.2634234 0.0098498215          0.1    7.2591456  0.006767157    96.319436    10172.249 
   28300    181.76181    0.3312737    1.2666006 0.0098498215          0.1    7.2995487 0.0067881525    96.265672     10170.93 
   28400    182.43521    0.3313542    1.2696994 0.0098498215          0.1    7.4330449 0.0066681301    94.673479     10170.21 
   28500    183.09664   0.33140066    1.2729692 0.0098498215          0.1     7.563537 0.0065499709    89.406579    10171.608 
   28600    183.74585   0.33203226    1.2765526 0.0098498215          0.1    7.6490013 0.0064279694    95.808204    10170.451 
   28700    184.38416   0.33118221    1.2796595 0.0098498215          0.1    7.6667336 0.0063766404     96.79108    10168.936 
   28800    185.01521   0.33146298    1.2826981 0.0098498215          0.1    7.4982058 0.0061974703    94.697419    10168.194 
   28900    185.63569   0.33049498    1.2858502 0.0098498215          0.1    7.6491762 0.0061740122    95.776897     10167.05 
   29000    186.24913   0.33071032    1.2884377 0.0098498215          0.1    7.7634571 0.0060981583    94.060828    10166.545 
   29100    186.85501   0.33164349    1.2913418 0.0098498215          0.1    7.8885453 0.0060099527    94.793815    10165.762 
   29200    187.45185   0.33152147    1.2947558 0.0098498215          0.1    8.0832574 0.0058387211    94.517695    10165.079 
   29300    188.09449   0.33139996    1.2977115 0.0098498215          0.1    7.7613279  0.006430924    96.959632    10163.511 
   29400    188.73354   0.33232336    1.3005371 0.0098498215          0.1    7.8731261 0.0063388166    94.941527     10162.67 
   29500    189.36291   0.33015053    1.3042901 0.0098498215          0.1    8.0020753 0.0062369711      91.5574    10163.109 
   29600    189.98116   0.33176165    1.3076905 0.0098498215          0.1    8.1461945 0.0061313643    95.315603    10162.125 
   29700     190.5902    0.3321393    1.3114313 0.0098498215          0.1    8.2680039 0.0060412195    94.645173    10161.384 
   29800    191.19037   0.33280463    1.3147325 0.0098498215          0.1    8.3889375 0.0059542192    95.228023     10160.43 
   29900    191.78204   0.33147527    1.3177946 0.0098498215          0.1    8.5072722 0.0058715605    94.924939    10159.585 
   30000    192.36538   0.33246842    1.3211946 0.0098498215          0.1    8.6200708 0.0057676481    94.315868    10158.958 
   30100    192.93653   0.33147252    1.3247051 0.0098498215          0.1    8.7341639 0.0056712675     95.16178    10158.024 
   30200    193.50083   0.33011716    1.3275947 0.0098498215          0.1    8.8472643 0.0056359154    96.215831     10156.72 
   30300    194.06132   0.33096599     1.330993 0.0098498215          0.1    8.9593629 0.0055670818    94.236679    10156.116 
   30400    194.61353   0.33121731    1.3340869 0.0098498215          0.1    9.0698059  0.005454856    96.132032    10154.842 
   30500    195.16017   0.33166025    1.3370871 0.0098498215          0.1    9.2135538 0.0054246192    96.030105    10153.604 
   30600    195.69759   0.33141637    1.3402643 0.0098498215          0.1    8.9359905 0.0054228013    97.150482    10151.988 
   30700    196.23753   0.33054125    1.3439286 0.0098498215          0.1    9.0387335 0.0053664257    95.444896    10150.956 
   30800    196.77118   0.33197223    1.3468583 0.0098498215          0.1    9.1614031 0.0053037121    94.104639    10150.393 
   30900     197.3026   0.33099416    1.3506886 0.0098498215          0.1     7.362357  0.005245595    95.561083    10149.319 
   31000    197.82593   0.33117102    1.3542036 0.0098498215          0.1    9.4326917 0.0050892691    94.528857    10148.603 
   31100    198.36169   0.33253989    1.3570507 0.0098498215          0.1    7.3222253 0.0053474481    95.877279    10147.421 
   31200    198.89512    0.3331135    1.3597633 0.0098498215          0.1    7.4929291 0.0053181636    94.551211    10146.694 
   31300    199.42562   0.33199545    1.3625835 0.0098498215          0.1    6.8269505  0.005288844    96.016827    10145.465 
   31400    199.95318   0.33170709    1.3658519 0.0098498215          0.1    6.9512123 0.0052595123    91.795934    10145.714 
   31500    200.47778   0.33014033    1.3692181 0.0098498215          0.1    7.1852104 0.0052178085    95.063709    10144.804 
   31600    201.05585   0.33094948    1.3726262 0.0098498215          0.1    7.0227247 0.0059589804    96.351364    10143.462 
   31700    201.64462   0.33209415    1.3762381 0.0098498215          0.1    7.0050304 0.0058189107    95.868644    10142.282 
   31800     202.2265   0.33146231    1.3805195 0.0098498215          0.1    7.2287179 0.0058386747     95.09509    10141.361 
   31900    202.81536   0.33163312    1.3844385 0.0098498215          0.1    7.2828002 0.0065095998    96.386747    10140.011 
   32000    203.47553   0.33097539    1.3883289 0.0098498215          0.1     7.420666 0.0066916348    94.696072    10139.224 
   32100    204.13941   0.33184556    1.3917365 0.0098498215          0.1    7.5564468 0.0065729448    94.713842    10138.429 
   32200    204.78301   0.33200215     1.395376 0.0098498215          0.1     7.769422  0.006433795    95.220305    10137.463 
   32300    205.42515   0.33167731    1.3993066 0.0098498215          0.1    7.8464743 0.0063706026    95.790852     10136.31 
   32400    206.05763   0.33232409    1.4024092 0.0098498215          0.1    7.9729692 0.0062695822    95.307546    10135.315 
   32500    206.68012   0.33284015     1.406005 0.0098498215          0.1    8.1084374 0.0061646637    95.292735    10134.325 
   32600    207.29263   0.33229931    1.4097494 0.0098498215          0.1    7.3695588 0.0065630461    95.441139    10133.287 
   32700    207.93319    0.3299699    1.4139161 0.0098498215          0.1    7.5266032 0.0063577977    96.617704     10131.87 
   32800    208.56494   0.33107824    1.4178368 0.0098498215          0.1    7.6521634 0.0062570353    94.539511    10131.127 
   32900    209.18665   0.33066134    1.4221854 0.0098498215          0.1    7.7670195 0.0062202288    95.909726    10129.938 
   33000      209.805   0.33105231    1.4254799 0.0098498215          0.1    7.9155536 0.0061380684    94.333496     10129.26 
   33100    210.41512   0.33115936    1.4290026 0.0098498215          0.1    8.0520689 0.0060303579    94.372104    10128.567 
   33200    211.01708   0.33132568    1.4331189 0.0098498215          0.1    8.1359056 0.0059986727    95.211357      10127.6 
   33300    211.61318   0.33240628    1.4370008 0.0098498215          0.1    8.0273521 0.0059155586    94.248664    10126.944 
   33400    212.20122   0.33245829    1.4408792 0.0098498215          0.1    8.1449613 0.0058326485    95.140583    10125.998 
   33500     212.7866   0.33171559    1.4448678 0.0098498215          0.1    8.2620357 0.0059174739    95.872501    10124.819 
   33600     213.3747   0.33270952    1.4480955 0.0098498215          0.1    8.3133907 0.0058631865    95.944807    10123.619 
   33700    213.95822   0.33199614    1.4520567 0.0098498215          0.1    8.4166746 0.0057941286    94.749274    10122.797 
   33800    214.53418   0.33270151    1.4559063 0.0098498215          0.1    8.5313854 0.0057199693    96.326205    10121.479 
   33900    215.10294   0.33299875    1.4596561 0.0098498215          0.1    8.6466068 0.0056819665     96.14748    10120.218 
   34000    215.66799   0.33256724    1.4635236 0.0098498215          0.1    8.7584084 0.0056118421    93.584943    10119.768 
   34100    216.22608   0.33237796     1.467482 0.0098498215          0.1    8.8700266 0.0055435591     94.86757    10118.904 
   34200    216.77745   0.33168842    1.4711784 0.0098498215          0.1    8.9803011 0.0054776838    94.337294    10118.207 
   34300    217.31164   0.33296602    1.4742961 0.0098498215          0.1     9.537172 0.0051675015    96.616324    10116.804 
   34400    217.82597   0.33252603    1.4770749 0.0098498215          0.1    9.6399219 0.0051139897    94.674804    10115.999 
   34500    218.33501   0.33175303    1.4802714 0.0098498215          0.1    9.7399248  0.005062225    94.571144    10115.225 
   34600    218.83901   0.33416811    1.4831554 0.0098498215          0.1    9.8389819 0.0050124659    93.921582    10114.653 
   34700    219.33784   0.33375164    1.4863103 0.0098498215          0.1    9.9501775 0.0049573168    94.988787    10113.745 
   34800    219.83174   0.33277713    1.4894827 0.0098498215          0.1    10.040428 0.0049138397     96.03536    10112.519 
   34900    220.32104   0.33232897    1.4925828 0.0098498215          0.1    10.138112 0.0048676677    94.799407    10111.669 
   35000    220.80577   0.33314375    1.4951372 0.0098498215          0.1    10.237243 0.0048212899     95.13726    10110.714 
   35100    221.28592   0.33312904    1.4978883 0.0098498215          0.1    10.329423 0.0047779036    94.514564    10109.949 
   35200    221.76171   0.33371653    1.5000659 0.0098498215          0.1    10.433863 0.0047282181    95.039497    10109.023 
   35300    222.24745   0.33325899    1.5029384 0.0098498215          0.1    8.4819553 0.0048020758    95.899156    10107.838 
   35400     222.7265   0.33304138    1.5058176 0.0098498215          0.1    8.5777665 0.0047765129    94.350047     10107.12 
   35500    223.20301   0.33216636    1.5089337 0.0098498215          0.1    8.6730678  0.004751096    94.857851    10106.246 
   35600    223.67683   0.33281812    1.5123801 0.0098498215          0.1    8.7678326 0.0047194193    95.287279    10105.243 
   35700     224.1478   0.33305097    1.5154288 0.0098498215          0.1    8.8620267 0.0046959978    95.681788    10104.122 
   35800    224.64302   0.33225511    1.5183173 0.0098498215          0.1    9.0815654 0.0054931346    96.421956    10102.786 
   35900    225.19208   0.33180641    1.5222459 0.0098498215          0.1    9.1259658 0.0054701857    96.892481    10101.316 
   36000    225.73327   0.33366928    1.5252984 0.0098498215          0.1     9.305514 0.0053566831    93.715778    10100.785 
   36100    226.26986   0.33267872    1.5285278 0.0098498215          0.1    9.3011864 0.0053511407    95.287755    10099.782 
   36200    226.80225    0.3329452    1.5317924 0.0098498215          0.1    9.4076656 0.0052911165    95.563631    10098.697 
   36300    227.32873   0.33294125    1.5351112 0.0098498215          0.1    9.5129623  0.005233063     94.34888     10097.97 
   36400    227.84949   0.33190676    1.5380831 0.0098498215          0.1    9.6247515 0.0051723239    93.376784    10097.534 
   36500    228.36232   0.33265484    1.5409314 0.0098498215          0.1    9.7515174 0.0051057515    96.442065    10096.195 
   36600    228.87101    0.3330143    1.5440045 0.0098498215          0.1    9.7593681 0.0051032602    96.078565    10094.962 
   36700    229.37882    0.3344171    1.5467752 0.0098498215          0.1    9.8619738 0.0050539851      95.4366    10093.913 
   36800     229.8816   0.33345179    1.5496928 0.0098498215          0.1     9.980173  0.004985393    95.433495    10092.866 
   36900    230.37595   0.33370392    1.5526481 0.0098498215          0.1    10.160858 0.0049161395    97.261614    10091.304 
   37000    230.86514   0.33433282    1.5551736 0.0098498215          0.1    10.255672 0.0048499486    95.559799    10090.221 
   37100    231.35926   0.33411376    1.5582438 0.0098498215          0.1    8.5241327 0.0051547894    96.569187    10088.855 
   37200    231.87546   0.33302278     1.561495 0.0098498215          0.1    8.6520989 0.0051344283    95.997861     10087.65 
   37300    232.42584   0.33347021    1.5649244 0.0098498215          0.1    7.3890157 0.0055742078     95.64426    10086.546 
   37400    232.97992   0.33320696     1.568106 0.0098498215          0.1    7.2938504 0.0055490764    95.807744    10085.396 
   37500     233.5324   0.33415228     1.571174 0.0098498215          0.1    7.3329557 0.0054966274    95.544561     10084.32 
   37600    234.08026   0.33223272    1.5738545 0.0098498215          0.1    7.8502319 0.0054523096    95.409919    10083.282 
   37700    234.62272   0.33237427    1.5769049 0.0098498215          0.1    7.9001017 0.0053394329    94.385314    10082.535 
   37800    235.19107   0.33107581    1.5794386 0.0098498215          0.1     7.960092 0.0057798535    96.475917    10081.201 
   37900     235.7368    0.3319417    1.5822987 0.0098498215          0.1    8.0715625 0.0053615589    95.294099    10080.196 
   38000    236.28464   0.33206054    1.5855668 0.0098498215          0.1    8.0675052 0.0056711104    96.235633     10078.93 
   38100    236.85891   0.33269351    1.5885193 0.0098498215          0.1     7.944409 0.0057279287    95.175104    10077.958 
   38200    237.42868   0.33314051    1.5913594 0.0098498215          0.1    8.0678885    0.0056587    95.245085    10076.966 
   38300    237.99203   0.33166395    1.5944772 0.0098498215          0.1    8.1834407 0.0055995223    95.280374    10075.963 
   38400    238.54911    0.3319852     1.598119 0.0098498215          0.1    8.2981643  0.005533899    94.608197    10075.148 
   38500     239.1388   0.33256847    1.6014017 0.0098498215          0.1    8.2531558 0.0060106522    94.525555    10074.354 
   38600    239.73573   0.33301501    1.6053665 0.0098498215          0.1    8.3791531 0.0059259304     94.92582    10073.448 
   38700    240.32863   0.33322443    1.6086162 0.0098498215          0.1    8.4335424 0.0058899614    96.277339    10072.173 
   38800    240.91903    0.3338524     1.611596 0.0098498215          0.1    8.1752344 0.0059341747    95.125759    10071.211 
   38900    241.50895   0.33264823    1.6146612 0.0098498215          0.1    8.2910838 0.0058558424    94.924209    10070.304 
   39000    242.09107   0.33257552    1.6176793 0.0098498215          0.1    8.4075068 0.0057792938    94.063655    10069.634 
   39100    242.66566   0.33329118    1.6208102 0.0098498215          0.1    8.5231947  0.005705837    94.977947     10068.71 
   39200    243.23326   0.33172242    1.6240243 0.0098498215          0.1    8.6337365 0.0056378268    93.804394    10068.109 
   39300    243.78641   0.33452574    1.6262031 0.0098498215          0.1    8.7443666 0.0053276958    92.722148    10067.809 
   39400    244.33249   0.33291403    1.6294631 0.0098498215          0.1    8.8535825 0.0055048936    92.352231    10067.611 
   39500    244.87747   0.33356167    1.6325489 0.0098498215          0.1    8.9670085 0.0054044856    95.041048    10066.663 
   39600    245.41548   0.33232832    1.6356615 0.0098498215          0.1    7.6348166 0.0050564081    95.715196    10065.535 
   39700    245.92361   0.33150105    1.6383682 0.0098498215          0.1    7.7366756 0.0050719357    95.266221    10064.526 
   39800    246.42854   0.33313351    1.6408618 0.0098498215          0.1    7.8402332 0.0050051576    94.599342    10063.696 
   39900    246.96523   0.33297321    1.6433657 0.0098498215          0.1    7.9473157 0.0061320252    96.122515    10062.462 
   40000    247.57567   0.33367612    1.6467027 0.0098498215          0.1    8.0705848 0.0060722874    94.354399    10061.696 
   40100    248.17994   0.33307596    1.6505679 0.0098498215          0.1     8.195522 0.0060296949    95.191844    10060.706 
   40200     248.7726   0.33325879    1.6535609 0.0098498215          0.1    8.4578154 0.0058533683    95.152022    10059.726 
   40300    249.35583   0.33246563    1.6567179 0.0098498215          0.1    8.5625547 0.0057659462    95.316707    10058.702 
   40400    249.95185   0.33232743    1.6592582 0.0098498215          0.1    6.5315205  0.006362563    97.597334    10057.096 
   40500    250.58556   0.33194097    1.6626371 0.0098498215          0.1    6.6517252 0.0063067598    94.313641    10056.338 
   40600    251.21359   0.33280013    1.6662215 0.0098498215          0.1    6.7772104 0.0062491532    95.107123    10055.369 
   40700    251.83596   0.33323186    1.6707332 0.0098498215          0.1    6.8183304 0.0061999237    95.421857    10054.319 
   40800    252.45481   0.33211784    1.6746299 0.0098498215          0.1    7.0571843 0.0061600277    95.966145    10053.128 
   40900     253.0678   0.33154959    1.6780114 0.0098498215          0.1    6.8272684 0.0060338628    94.965409    10052.196 
   41000    253.73117   0.33136847    1.6818023 0.0098498215          0.1    6.9799071 0.0070655498    96.942264    10050.761 
   41100    254.43479   0.33296449    1.6853323 0.0098498215          0.1    6.5814538 0.0069933371    95.608309    10049.664 
   41200    255.13369   0.33347344    1.6887312 0.0098498215          0.1      6.74878 0.0069270985    94.769226    10048.782 
   41300    255.82052   0.33294922    1.6924756 0.0098498215          0.1    6.8127445 0.0068071139    95.763426    10047.645 
   41400    256.49604   0.33288781    1.6958425 0.0098498215          0.1    6.9737723 0.0066927786     96.21508    10046.396 
   41500    257.15913   0.33306453    1.6992295 0.0098498215          0.1    7.1063904 0.0067547347    95.900647    10045.226 
   41600    257.82947   0.33285319    1.7026117 0.0098498215          0.1     7.344403 0.0065895977    95.425201    10044.176 
   41700    258.48567    0.3330444    1.7064116 0.0098498215          0.1    7.0581885 0.0065536469    96.691228    10042.811 
   41800    259.13639    0.3324871    1.7106096 0.0098498215          0.1    7.1942801 0.0064428959    96.116149    10041.589 
   41900    259.78294   0.33307368    1.7145266 0.0098498215          0.1    7.0714401 0.0066381845    96.296725    10040.324 
   42000    260.44933   0.33091949    1.7190619 0.0098498215          0.1    7.2023982 0.0066882515    98.218496    10038.596 
   42100    261.11302   0.33164247     1.723161 0.0098498215          0.1    7.3351355 0.0064481509    95.872041    10037.439 
   42200    261.76069   0.33165926    1.7272866 0.0098498215          0.1    7.4837825 0.0065192725    99.656976    10035.383 
   42300    262.41386   0.33270881    1.7312907 0.0098498215          0.1    7.6006888 0.0064736647    97.979374    10033.721 
   42400    263.05878   0.33322132    1.7354114 0.0098498215          0.1    7.7327539 0.0064256291    96.302739    10032.463 
   42500    263.69536   0.33275246     1.739507 0.0098498215          0.1    7.8449432  0.006327076    95.897709    10031.305 
   42600    264.32247   0.33427277    1.7433362 0.0098498215          0.1    7.6704208 0.0062385643    95.069764    10030.352 
   42700    264.94458   0.33387444    1.7469651 0.0098498215          0.1    7.7238646 0.0061736539    95.985866    10029.173 
   42800    265.55796   0.33372112    1.7508366 0.0098498215          0.1    7.8465399 0.0060856796     95.59591     10028.09 
   42900     266.1627     0.332323    1.7541712 0.0098498215          0.1    7.9674879 0.0060012509     94.94963    10027.166 
   43000    266.77498   0.33289806    1.7578379 0.0098498215          0.1    7.7951661 0.0063729944    95.177911    10026.185 
   43100     267.3945   0.33259388    1.7607581 0.0098498215          0.1    8.3610752  0.005809593    95.670068    10025.084 
   43200    267.97845   0.33243453    1.7639051 0.0098498215          0.1    8.4490101 0.0057878439    96.167254    10023.864 
   43300    268.55305   0.33249372     1.767259 0.0098498215          0.1    8.6619917 0.0056597389    94.880339    10022.956 
   43400    269.13397   0.33266526    1.7702525 0.0098498215          0.1    8.0109213 0.0059811434    95.776262    10021.829 
   43500    269.72841   0.33209434     1.773864 0.0098498215          0.1    8.1209081 0.0058975414    95.761961    10020.707 
   43600    270.32245   0.33325081    1.7770514 0.0098498215          0.1     7.768976 0.0063113372    96.444771    10019.423 
   43700    270.94519   0.33366258    1.7805027 0.0098498215          0.1    7.9110454 0.0060785581    96.656735     10018.09 
   43800    271.56417   0.33225818    1.7843754 0.0098498215          0.1    7.8319858 0.0062694701    96.996226     10016.68 
   43900    272.19369   0.33397716    1.7878084 0.0098498215          0.1    6.8842344 0.0066455434    96.020146    10015.499 
   44000    272.85394   0.33322273     1.792494 0.0098498215          0.1    7.0621359 0.0065485078    93.880841    10014.835 
   44100    273.50418   0.33336886     1.795885 0.0098498215          0.1    7.1921836 0.0066320813    92.331677    10014.557 
   44200    274.16245   0.33187627    1.7995875 0.0098498215          0.1    7.3238378  0.006523319    92.067553    10014.342 
   44300    274.81007   0.33256163    1.8026528 0.0098498215          0.1    7.4533625 0.0064195834    92.401711    10014.038 
   44400    275.44706   0.33261595    1.8065918 0.0098498215          0.1    7.5673372 0.0063336206    95.218511    10013.041 
   44500    276.08309    0.3339277    1.8103984 0.0098498215          0.1    7.5855948 0.0063162171    96.871065     10011.66 
   44600     276.7083     0.332573    1.8140611 0.0098498215          0.1    7.7638356 0.0063322458    95.395727    10010.623 
   44700    277.31825   0.33266785    1.8174069 0.0098498215          0.1    7.4833094 0.0060519491    96.469504    10009.335 
   44800    277.92116   0.33276573    1.8205954 0.0098498215          0.1    7.6098611 0.0059905347    94.238182    10008.573 
   44900    278.51688   0.33297841    1.8236626 0.0098498215          0.1     7.731142 0.0059169952    94.561123    10007.732 
   45000    279.10536   0.33293871     1.827093 0.0098498215          0.1    7.4892433 0.0058458323     95.11672    10006.759 
   45100     279.6862   0.33356194    1.8297083 0.0098498215          0.1    7.5681576 0.0057743925    94.726035    10005.877 
   45200    280.26065   0.33338588     1.833248 0.0098498215          0.1    7.6827935 0.0057081978    95.567659    10004.798 
   45300    280.82856   0.33367447    1.8372656 0.0098498215          0.1    7.7963756 0.0056438987    94.107363    10004.062 
   45400    281.38885   0.33280505    1.8410555 0.0098498215          0.1    7.8405856 0.0055015479    95.875438    10002.912 
   45500    281.96078   0.33209682    1.8447738 0.0098498215          0.1    7.9306131 0.0055909993    96.680953     10001.58 
   45600    282.51942   0.33236904    1.8483355 0.0098498215          0.1    8.2171793 0.0055806034    95.567659    10000.502 
   45700    283.07706   0.33216232    1.8518419 0.0098498215          0.1     7.967206 0.0055707362    94.021209    9999.7828 
   45800    283.63353   0.33292574    1.8544721 0.0098498215          0.1    8.0935572 0.0055713877    95.973325    9998.6118 
   45900    284.19739   0.33127972    1.8581293 0.0098498215          0.1    8.2025659 0.0060091398    96.035008    9997.4275 
   46000     284.7947    0.3306266    1.8620459 0.0098498215          0.1    8.3168785 0.0059295793    93.734146    9996.7739 
   46100    285.38368   0.33303835    1.8654219 0.0098498215          0.1    8.4288196  0.005830633    94.583684    9995.9202 
   46200    285.96121   0.33221062    1.8688902 0.0098498215          0.1    8.5609445 0.0057352022    96.126568    9994.7153 
   46300    286.53139   0.33399517    1.8721662 0.0098498215          0.1     8.660711 0.0056626122    95.326976    9993.6908 
   46400    287.08716   0.33226259    1.8758253 0.0098498215          0.1    8.7718659 0.0054597405    95.780396    9992.5642 
   46500    287.64143     0.332156    1.8788652 0.0098498215          0.1    8.8824616  0.005597036    95.712837    9991.4531 
   46600    288.19797   0.33207438    1.8822474 0.0098498215          0.1    8.9981229 0.0055258497     94.39056    9990.6416 
   46700    288.74873   0.33144659    1.8852495 0.0098498215          0.1    9.0695262 0.0054839722    95.980792    9989.4708 
   46800     289.2942   0.33251323    1.8883518 0.0098498215          0.1    9.1790674 0.0054195675    95.291739     9988.454 
   46900    289.83351   0.33213954    1.8915564 0.0098498215          0.1     8.944712 0.0054206749    95.538184    9987.3821 
   47000    290.37285   0.33362045    1.8948748 0.0098498215          0.1    9.0413895 0.0053588766    95.118317    9986.4039 
   47100    290.90531    0.3330513    1.8985593 0.0098498215          0.1    9.1694726 0.0052641567    94.888818    9985.4769 
   47200     291.4362   0.33278104    1.9018573 0.0098498215          0.1    9.0321176  0.005268087    96.860752    9984.1162 
   47300    291.96128    0.3319909    1.9050086 0.0098498215          0.1     9.135559 0.0052224419    95.273924    9983.1032 
   47400    292.48123   0.33241315    1.9080242 0.0098498215          0.1    9.2321148  0.005171608    95.166509    9982.1139 
   47500    292.99615   0.33266797    1.9110562 0.0098498215          0.1    8.8797297 0.0051220283    95.142223    9981.1298 
   47600    293.50617   0.33270778    1.9138515 0.0098498215          0.1    8.9817337 0.0050737535    94.611057    9980.2634 
   47700    294.00943    0.3324653    1.9165821 0.0098498215          0.1     8.518932 0.0051348067    95.896942    9979.1132 
   47800    294.52564   0.33301477    1.9197646 0.0098498215          0.1    8.6622631 0.0051431033    96.440203    9977.8465 
   47900    295.03812   0.33304916    1.9233902 0.0098498215          0.1    8.3138538 0.0051004914    95.846496    9976.7085 
   48000    295.54602   0.33260241     1.926851 0.0098498215          0.1    8.4139937 0.0050407285    95.307719    9975.6878 
   48100    296.08331   0.33241418    1.9300066 0.0098498215          0.1    7.7340862 0.0060652866     95.37024    9974.6533 
   48200    296.69021   0.33281009     1.933526 0.0098498215          0.1    8.0581313  0.005933243    95.903301    9973.5038 
   48300    297.28052   0.33271064     1.937221 0.0098498215          0.1    8.1948079 0.0058630022    96.473143    9972.2333 
   48400    297.85456   0.33341153    1.9403241 0.0098498215          0.1    8.5718765 0.0056428236    95.739578    9971.1199 
   48500    298.43558   0.33253821    1.9439462 0.0098498215          0.1    8.0509532 0.0060969401    96.175302     9969.914 
   48600    299.04851   0.33210496    1.9476964 0.0098498215          0.1    7.6283115 0.0062164033    97.072394    9968.5206 
   48700    299.66505    0.3318725    1.9512179 0.0098498215          0.1    7.8245579 0.0060708274    95.530612    9967.4535 
   48800    300.26047   0.33238236    1.9546376 0.0098498215          0.1     7.941953 0.0058327974    96.162072    9966.2525 
   48900    300.84126   0.33225331    1.9580961 0.0098498215          0.1    8.0632623 0.0057740564    94.335617    9965.4438 
   49000    301.41641   0.33297636    1.9611314 0.0098498215          0.1    7.9669382  0.005835126    94.860898    9964.5201 
   49100    301.99836   0.33248057    1.9645674 0.0098498215          0.1    8.0504837 0.0057831635    96.378397    9963.2744 
   49200     302.5722   0.33222311    1.9679524 0.0098498215          0.1    8.2190944 0.0056908827    95.709167    9962.1698 
   49300    303.13821   0.33266736    1.9715389 0.0098498215          0.1    8.3331223 0.0056223015    95.076725    9961.1995 
   49400    303.69658   0.33352502    1.9751735 0.0098498215          0.1    8.4713242 0.0055426128    95.735841    9960.0895 
   49500      304.248   0.33398734    1.9784312 0.0098498215          0.1    8.5875329 0.0054742069    95.327712    9959.0656 
   49600    304.79422   0.33384587    1.9816461 0.0098498215          0.1    8.6269187    0.0054377    95.758179    9957.9512 
   49700    305.34012   0.33425752    1.9850699 0.0098498215          0.1    8.2074497 0.0060777714    96.382207    9956.7079 
   49800     305.9275   0.33230952    1.9879777 0.0098498215          0.1     8.373861 0.0056780077    96.402365    9955.4613 
   49900     306.5039   0.33273513    1.9912545 0.0098498215          0.1    8.4252603 0.0058335194    96.768592    9954.1407 
   50000    307.09164   0.33233658    1.9946219 0.0098498215          0.1    7.5674565 0.0060558837    95.620122    9953.0571 
   50100    307.70993   0.33306916     1.998268 0.0098498215          0.1    7.6904523 0.0062306507    96.438894    9951.8053 
   50200    308.32934   0.33297242    2.0016875 0.0098498215          0.1     7.814333 0.0061570497    95.306636    9950.7875 
   50300    308.94474   0.33278983    2.0047814 0.0098498215          0.1    7.9374142 0.0062912115    94.585369    9949.9206 
   50400    309.56945   0.33261943    2.0078694 0.0098498215          0.1    8.0623556 0.0061939611    95.815361    9948.7972 
   50500    310.18414   0.33335807     2.011654 0.0098498215          0.1    8.0970387 0.0061744377    95.223137    9947.7962 
   50600    310.80676   0.33382905    2.0157247 0.0098498215          0.1    8.0679148 0.0061954847    95.146281    9946.8109 
   50700    311.42209    0.3319489    2.0193502 0.0098498215          0.1    8.1909803 0.0061024565    94.918452    9945.8726 
   50800    312.02617   0.33175752    2.0226921 0.0098498215          0.1    8.3117952 0.0060138068     96.25001    9944.6615 
   50900    312.62334   0.33207167    2.0262806 0.0098498215          0.1    8.4586018 0.0059085887    95.606326    9943.5815 
   51000    313.21118   0.33262553    2.0293101 0.0098498215          0.1    8.5579128 0.0058387101    94.260017    9942.7796 
   51100    313.79133   0.33332311    2.0327905 0.0098498215          0.1    8.6820479 0.0057549432    82.937376    9944.6662 
   51200    314.36351   0.33233237    2.0360916 0.0098498215          0.1    8.7827392 0.0056877733    96.064636    9943.4875 
   51300    314.92902    0.3323508    2.0392275 0.0098498215          0.1    8.8958405 0.0056155891    94.964506    9942.5323 
   51400    315.48714   0.33076688    2.0424583 0.0098498215          0.1    9.0150451 0.0055387147    95.424028    9941.4831 
   51500    316.03743   0.33266372    2.0449553 0.0098498215          0.1    9.1302704 0.0054685172    95.796912    9940.3588 
   51600    316.58137   0.33152501    2.0478968 0.0098498215          0.1    9.2390591 0.0054043055    94.912674    9939.4135 
   51700    317.11871   0.33246359    2.0507694 0.0098498215          0.1    9.3369049 0.0053434334    95.318159    9938.3857 
   51800    317.65201   0.33294127    2.0534065 0.0098498215          0.1    9.2812258 0.0053381355    96.662638    9937.0906 
   51900     318.1831   0.33236075    2.0570925 0.0098498215          0.1    9.3870412 0.0052786379    95.120776    9936.1029 
   52000    318.70871   0.33236552    2.0596936 0.0098498215          0.1    9.4964455 0.0052256149    94.278874    9935.2861 
   52100    319.22864   0.33221734    2.0618789 0.0098498215          0.1    9.6285826 0.0051699805    94.462158    9934.4309 
   52200     319.7432   0.33208396    2.0647826 0.0098498215          0.1    9.7276749 0.0051160646    95.100416     9933.446 
   52300    320.25211   0.33248813    2.0677473 0.0098498215          0.1    9.8172485 0.0050469498     94.66004    9932.5494 
   52400    320.75489   0.33165882    2.0701307 0.0098498215          0.1    9.9119194 0.0050010413    95.225775    9931.5387 
   52500    321.25275   0.33166416    2.0730166 0.0098498215          0.1    10.013093 0.0049507138     94.91465    9930.5899 
   52600    321.74933   0.33195347    2.0758148 0.0098498215          0.1    9.9723655 0.0050086483    95.506706    9929.5232 
   52700    322.24795   0.33261958    2.0779164 0.0098498215          0.1    10.072091 0.0049591584    95.457104    9928.4663 
   52800    322.74169   0.33280495    2.0800578 0.0098498215          0.1    10.170778 0.0049110636     94.95567    9927.5087 
[...]
  985300    5626.2255   0.33264372    30.877584 0.0098498215          0.1    8.5704852 0.0057997284    89.085029    164.35543 
  985400     5626.802   0.33284292    30.881043 0.0098498215          0.1    8.6863434 0.0057231149    88.527301    163.23754 
  985500    5627.3696    0.3320248    30.884219 0.0098498215          0.1    8.9305597 0.0055761536    88.811212    162.11959 
  985600    5627.9358   0.33309248     30.88749 0.0098498215          0.1    8.4069299 0.0058473919    90.430889    161.00135 
  985700    5628.5171   0.33283135    30.891326 0.0098498215          0.1    8.5338047 0.0057608727    89.656747    159.88324 
  985800     5629.092   0.33307098     30.89501 0.0098498215          0.1    8.5945089 0.0057143903    89.128152    158.76523 
  985900    5629.6741   0.33372413    30.898117 0.0098498215          0.1    7.9612153 0.0060809982    89.246188     157.6472 
  986000    5630.2772   0.33394156    30.900967 0.0098498215          0.1    8.1063969 0.0060271037    89.102572     156.5292 
  986100    5630.8704   0.33397455    30.904725 0.0098498215          0.1    8.1732597 0.0059544578    89.004006    155.41121 
  986200    5631.4623   0.33352038    30.908102 0.0098498215          0.1    8.3426404 0.0058456535    88.909898    154.29324 
  986300    5632.1006   0.33343376    30.911629 0.0098498215          0.1    7.6729373 0.0063936969    90.118843    153.17505 
  986400     5632.741   0.33356387    30.914619 0.0098498215          0.1    7.8010122 0.0063879535     91.62198    152.05662 
  986500    5633.3763   0.33275692    30.918427 0.0098498215          0.1     7.681149 0.0063762107    88.980404    150.93864 
  986600    5634.0099   0.33361331    30.921466 0.0098498215          0.1    7.7888382 0.0062860277    88.702727     149.8207 
  986700    5634.6342    0.3330483    30.924941 0.0098498215          0.1    7.9136949 0.0061908382    88.696593    148.70276 
  986800     5635.249   0.33273668    30.928472 0.0098498215          0.1    8.0383674 0.0060965264    88.739266    147.58481 
  986900    5635.8547   0.33412245    30.932301 0.0098498215          0.1    8.1474632 0.0060123894    89.075437    146.46681 
  987000    5636.4613   0.33288569    30.935852 0.0098498215          0.1    7.5383206 0.0061432709     88.33649    145.34892 
  987100    5637.0748   0.33385063    30.939101 0.0098498215          0.1     7.660753 0.0061026732    89.624849    144.23082 
  987200    5637.6814   0.33531618    30.941775 0.0098498215          0.1    7.7791065 0.0060221943    89.268811    143.11278 
  987300      5638.28   0.33415807    30.945382 0.0098498215          0.1    7.8979357 0.0059425603    88.297177     141.9949 
  987400    5638.8707   0.33500169    30.948668 0.0098498215          0.1    8.0194894 0.0058647958    89.246663    140.87686 
  987500    5639.4502   0.33333223    30.951888 0.0098498215          0.1    8.3476394  0.005711952    89.688514    139.75875 
  987600    5640.0147   0.33348789    30.954853 0.0098498215          0.1    8.4003459 0.0055764987    88.710212     138.6408 
  987700     5640.602   0.33364935    30.957691 0.0098498215          0.1    7.4554304 0.0064621825    90.513789    137.52256 
  987800    5641.2478    0.3339359    30.961426 0.0098498215          0.1    7.5866355 0.0064099559    89.466251    136.40449 
  987900    5641.8856   0.33396138     30.96452 0.0098498215          0.1    7.6270439 0.0063320623    88.957607    135.28649 
  988000    5642.5128   0.33361033    30.967815 0.0098498215          0.1    7.7682746 0.0062392213    88.601187    134.16855 
  988100    5643.1324   0.33303639    30.971535 0.0098498215          0.1    7.8815561 0.0061340136     88.27707    133.05066 
  988200    5643.7426   0.33326235    30.974179 0.0098498215          0.1    7.9906961 0.0061432187    88.719726    131.93269 
  988300    5644.3454   0.33247337     30.97765 0.0098498215          0.1    8.1112026 0.0059592246    90.140109    130.81452 
  988400    5644.9386   0.33252327    30.980539 0.0098498215          0.1    8.2405297 0.0059910577      88.7458    129.69655 
  988500     5645.538   0.33263283    30.983542 0.0098498215          0.1    8.3658768  0.005953036     88.72453    128.57858 
  988600    5646.1287   0.33264504    30.986557 0.0098498215          0.1     8.500029 0.0058634114    88.617043    127.46062 
  988700    5646.7113   0.33446786    30.989682 0.0098498215          0.1    8.6237513 0.0057775579    88.264772    126.34272 
  988800    5647.2855   0.33356768     30.99225 0.0098498215          0.1     8.670078 0.0057359689    89.401776    125.22464 
  988900    5647.8566    0.3339469    30.995929 0.0098498215          0.1    8.7501046 0.0056797527    88.478354     124.1067 
  989000    5648.4228   0.33306463    30.999068 0.0098498215          0.1    8.7727852 0.0056597594    88.292493    122.98879 
  989100    5648.9856   0.33367566    31.001301 0.0098498215          0.1    8.8853396 0.0055890411    87.751553    121.87094 
  989200    5649.5414    0.3342557    31.004071 0.0098498215          0.1    8.9971769 0.0055216096    88.757613    120.75296 
  989300    5650.0906    0.3324553      31.0074 0.0098498215          0.1    9.1070134 0.0054558528    87.795986     119.6351 
  989400    5650.6333   0.33313028    31.009989 0.0098498215          0.1    9.2155555 0.0053923822    88.684797    118.51712 
  989500    5651.1698   0.33427966    31.012109 0.0098498215          0.1    9.3225063 0.0053312135     88.68174    117.39913 
  989600    5651.6991   0.33355928    31.015178 0.0098498215          0.1    9.3839226 0.0053069593    89.652895    116.28102 
  989700    5652.2288   0.33388174    31.018447 0.0098498215          0.1    9.4556714 0.0052669393    88.126146     115.1631 
  989800    5652.7527    0.3336356    31.021614 0.0098498215          0.1    9.5657653 0.0052073446    88.160396    114.04518 
  989900     5653.271   0.33363881    31.024151 0.0098498215          0.1    9.6694106 0.0051519394    88.083691    112.92727 
  990000    5653.7837   0.33285783    31.026713 0.0098498215          0.1    9.7736477 0.0050973436    87.502013    111.80942 
  990100    5654.2941   0.33363768    31.029123 0.0098498215          0.1    9.1314686 0.0046465087    87.726592    110.69155 
  990200    5654.7588   0.33398546    31.031959 0.0098498215          0.1    9.2182201  0.004613273    89.394669    109.57346 
  990300    5655.2674   0.33409652     31.03494 0.0098498215          0.1    9.3202134 0.0052643094    90.737761     108.4552 
  990400    5655.7928    0.3338925    31.037833 0.0098498215          0.1    9.4891438 0.0052261526    88.674034     107.3372 
  990500    5656.3129   0.33334597    31.041216 0.0098498215          0.1     9.557823 0.0051903761    88.010111    106.21928 
  990600    5656.8295   0.33342134    31.044134 0.0098498215          0.1    9.6589329  0.005137227    87.796152    105.10138 
  990700    5657.3409   0.33273268    31.046812 0.0098498215          0.1    9.7611975 0.0050842082    87.524673    103.98351 
  990800     5657.847   0.33306564    31.049668 0.0098498215          0.1    9.8624164 0.0050327904    88.383417    102.86553 
  990900    5658.3479   0.33367684    31.051993 0.0098498215          0.1    9.9642189 0.0049826121    88.580716    101.74753 
  991000    5658.8438   0.33379266    31.054732 0.0098498215          0.1    10.061927 0.0049304725    87.800085    100.62961 
  991100    5659.3351   0.33287117    31.057439 0.0098498215          0.1    10.149847 0.0048881494    88.320567    99.511633 
  991200    5659.8729   0.33470738    31.060652 0.0098498215          0.1    8.1294591 0.0061226351    88.600794    98.393618 
  991300    5660.4748   0.33430475    31.064089 0.0098498215          0.1    8.2688335 0.0060216737    89.304867    97.275523 
  991400    5661.0732    0.3331138    31.067726 0.0098498215          0.1    8.3905128 0.0059371567    88.071262    96.157564 
  991500    5661.6567   0.33273932    31.071469 0.0098498215          0.1    8.5068165 0.0053008739    88.624289    95.039541 
  991600    5662.2206   0.33416314    31.074693 0.0098498215          0.1    8.6590205 0.0057380085    90.247325    93.921344 
  991700    5662.7856     0.332695    31.078158 0.0098498215          0.1    8.1982856 0.0055032035    90.506016    92.803122 
  991800    5663.3376   0.33304972    31.080859 0.0098498215          0.1    8.3072846 0.0055495457    91.372842    91.684816 
  991900    5663.8912   0.33321119    31.082997 0.0098498215          0.1    8.4339112 0.0055153572    88.172312    90.566839 
  992000    5664.4406   0.33367788    31.085203 0.0098498215          0.1    8.5435195 0.0054643957    86.560738     89.44903 
  992100    5664.9851    0.3324219    31.088131 0.0098498215          0.1    8.6524239 0.0054200168    85.317468    88.331347 
  992200    5665.5271   0.33289659    31.090804 0.0098498215          0.1    8.7628252 0.0055794489    86.350488    87.213543 
  992300    5666.0818   0.33396679    31.093397 0.0098498215          0.1    8.8948728  0.005497409    87.012744    86.095662 
  992400    5666.6354    0.3330518     31.09673 0.0098498215          0.1    8.7980552 0.0055338577    90.065917    84.977476 
  992500    5667.2421   0.33335915    31.099341 0.0098498215          0.1    7.7537213 0.0062887916    88.858156    83.859407 
  992600    5667.8688   0.33338298    31.102837 0.0098498215          0.1    7.9058976 0.0062381481    87.979299    82.741419 
  992700    5668.4889   0.33386244    31.106394 0.0098498215          0.1    7.8782304 0.0060653133     88.47772    81.623381 
  992800    5669.1186    0.3337164     31.10935 0.0098498215          0.1      6.79043 0.0064154518    90.301534    80.505175 
  992900    5669.7571   0.33465899    31.112698 0.0098498215          0.1    6.7999935 0.0063598323     88.27995    79.387152 
  993000    5670.3906   0.33191263    31.116884 0.0098498215          0.1    6.9266883 0.0062596854    87.117874    78.269232 
  993100    5671.0007   0.33335165    31.120568 0.0098498215          0.1     7.059198 0.0061504597     90.49676    77.151009 
  993200    5671.6172   0.33311597    31.123999 0.0098498215          0.1    7.5985883 0.0061268937    89.494752    76.032874 
  993300    5672.2312   0.33291791     31.12744 0.0098498215          0.1    7.8746022  0.006176691    89.395698    74.914747 
  993400    5672.8526   0.33338111     31.13091 0.0098498215          0.1    7.9629479 0.0061880989    90.453199    73.796532 
  993500    5673.4673   0.33330389    31.134499 0.0098498215          0.1    8.0858803 0.0060966658    88.664362    72.678467 
  993600    5674.0729   0.33382898    31.137668 0.0098498215          0.1    8.2070115 0.0060091411    89.316411    71.560346 
  993700    5674.6697    0.3345198    31.140873 0.0098498215          0.1    8.3314692 0.0059162385     89.13912    70.442239 
  993800    5675.2631   0.33311974    31.143691 0.0098498215          0.1    8.3340085 0.0059066898    90.624775    69.324017 
  993900    5675.8501    0.3341332    31.146763 0.0098498215          0.1    8.4514207 0.0058270993    89.172493    68.205908 
  994000    5676.4292   0.33447431    31.149962 0.0098498215          0.1    8.5689872 0.0057518465    87.955149    67.087892 
  994100    5677.0012   0.33366755     31.15329 0.0098498215          0.1    8.6807172 0.0056800219    86.032311    65.970023 
  994200    5677.5657   0.33280243    31.156438 0.0098498215          0.1    8.9098537 0.0055432829    87.827552    64.852006 
  994300    5678.1181   0.33387752     31.15927 0.0098498215          0.1    8.9279095 0.0055403077    89.818521     63.73384 
  994400    5678.6695    0.3324541    31.162102 0.0098498215          0.1    9.0343938 0.0054763967    88.789855    62.615749 
  994500    5679.2143   0.33475504    31.164837 0.0098498215          0.1    9.1401405 0.0054145091    88.857685     61.49765 
  994600     5679.753    0.3333723    31.167387 0.0098498215          0.1    9.2478709 0.0053526942    88.491347    60.379576 
  994700    5680.2833    0.3327319    31.170124 0.0098498215          0.1     8.695005 0.0051689573    89.956044    59.261401 
  994800    5680.8041   0.33357423    31.172222 0.0098498215          0.1    8.7943117 0.0055874521    89.262123    58.143273 
  994900    5681.3671   0.33334957    31.175121 0.0098498215          0.1    8.9053568 0.0055999602    89.052515    57.025157 
  995000     5681.924   0.33319089    31.177564 0.0098498215          0.1    8.8853053 0.0055969206    88.551355    55.907073 
  995100    5682.4837   0.33339296    31.180263 0.0098498215          0.1     8.929166 0.0055679265    86.456145    54.789121 
  995200    5683.0374   0.33273235    31.182672 0.0098498215          0.1    9.0399134 0.0055004703    86.669076    53.671148 
  995300    5683.5845   0.33408347    31.185477 0.0098498215          0.1    9.1493334 0.0054354003    86.094666    52.553204 
  995400    5684.1252   0.33263526    31.188727 0.0098498215          0.1    9.2574724 0.0053725793    86.149945    51.435248 
  995500    5684.6597   0.33300956    31.191158 0.0098498215          0.1    9.3643743 0.0053118807    86.630929    50.317253 
  995600    5685.1882   0.33390485     31.19423 0.0098498215          0.1    9.4796884 0.0052503598    85.863446    49.199298 
  995700    5685.7117   0.33311623    31.197269 0.0098498215          0.1    9.5650937 0.0052059733    87.086708    48.081262 
  995800    5686.2298   0.33422557    31.200098 0.0098498215          0.1    9.6687122 0.0051506295    88.414829    46.963147 
  995900    5686.7424   0.33401661    31.202762 0.0098498215          0.1    9.7712394   0.00509701    88.359193    45.845033 
  996000    5687.2498   0.33479107    31.205277 0.0098498215          0.1    9.8735695 0.0050445363    86.773772    44.726999 
  996100    5687.7525   0.33425059    31.208033 0.0098498215          0.1    9.8357023 0.0050718811    89.704761    43.608811 
  996200    5688.2591   0.33321148    31.210889 0.0098498215          0.1    9.8987697 0.0050396537    88.461597    42.490683 
  996300    5688.7607   0.33346536    31.213791 0.0098498215          0.1    9.9991072 0.0049893087     88.87981    41.372533 
  996400    5689.2574   0.33470435    31.216708 0.0098498215          0.1    10.099979   0.00493959    88.467474      40.2544 
  996500    5689.7456   0.33329118    31.219192 0.0098498215          0.1    10.395898 0.0047973654    89.390744    39.136224 
  996600    5690.2235   0.33268253    31.221736 0.0098498215          0.1    10.487116 0.0047555167    79.911384    38.018501 
  996700    5690.6972    0.3331829    31.224146 0.0098498215          0.1    10.578058 0.0047139155    79.384998    36.900778 
  996800    5691.1667   0.33262726    31.227209 0.0098498215          0.1    10.682038 0.0046681868    79.853829    35.783003 
  996900    5691.6444   0.33301893    31.229623 0.0098498215          0.1    7.8530163 0.0050244692     81.04182    34.665144 
  997000    5692.1461   0.33412811    31.232615 0.0098498215          0.1    9.9529134 0.0048531842    84.595498    33.547106 
  997100    5692.6308   0.33304685    31.235419 0.0098498215          0.1    7.9251957 0.0060802989    88.998284    32.428885 
  997200    5693.1612   0.33458187    31.238328 0.0098498215          0.1    8.0312689 0.0052041872    89.580057    31.310642 
  997300    5693.6801   0.33520223    31.241084 0.0098498215          0.1    8.1350573 0.0051635958    87.988195    30.192454 
  997400    5694.1935   0.33435623    31.244272 0.0098498215          0.1    8.2377431 0.0050641725    88.586834    29.074243 
  997500    5694.7567   0.33381961    31.246738 0.0098498215          0.1     8.366982 0.0059009227    89.461442    27.956001 
  997600    5695.3459    0.3331707    31.249795 0.0098498215          0.1    8.4643051 0.0058673908    89.418491    26.837762 
  997700     5695.929   0.33358787    31.252289 0.0098498215          0.1    8.5975064 0.0057929572    89.589835    25.719517 
  997800    5696.5024   0.33304379    31.255562 0.0098498215          0.1    8.7091548 0.0057176754    89.881423    24.601265 
  997900    5697.0709   0.33359121    31.258328 0.0098498215          0.1    8.8192751 0.0056449568    88.162119    23.483059 
  998000    5697.6316   0.33381629    31.260938 0.0098498215          0.1     8.931419 0.0055938704    89.129175    22.364826 
  998100    5698.1879   0.33414936    31.264012 0.0098498215          0.1    9.0426738 0.0055251521    88.045601    21.246618 
  998200    5698.7367   0.33446509    31.266625 0.0098498215          0.1    9.1263424 0.0054699031    88.540083    20.128395 
  998300     5699.286   0.33392028    31.269374 0.0098498215          0.1    9.1336515  0.005463867    89.605414    19.010147 
  998400    5699.8295   0.33203055    31.272335 0.0098498215          0.1    9.2522615 0.0053939615    88.908975    17.891913 
  998500    5700.3658   0.33177762    31.274821 0.0098498215          0.1    9.3708361 0.0053288448    89.461996    16.773668 
  998600    5700.9047   0.33160717    31.277457 0.0098498215          0.1    9.1421333 0.0054427647    90.592263    15.655403 
  998700    5701.4461   0.33285611     31.28076 0.0098498215          0.1     9.250417  0.005379656    89.077329    14.537166 
  998800     5701.981   0.33360206    31.283926 0.0098498215          0.1    9.3410585 0.0053310451    89.159944    13.418926 
  998900    5702.5132   0.33210085    31.286806 0.0098498215          0.1    9.4235998  0.005283538    88.982688    12.300689 
  999000    5703.0307   0.33311877    31.289645 0.0098498215          0.1    9.6712481 0.0051092406    88.088667    11.182461 
  999100     5703.647   0.33307406    31.293117 0.0098498215          0.1     7.486517 0.0063884062    88.649408    10.064224 
  999200    5704.2814   0.33226015    31.296542 0.0098498215          0.1    7.6141067 0.0062912449    88.634327    8.9459848 
  999300    5704.9063   0.33252454    31.300256 0.0098498215          0.1    7.7401947 0.0062021068    89.078842    7.8277398 
  999400    5705.5221   0.33297127      31.3034 0.0098498215          0.1    7.8443292 0.0061113427    89.291711    6.7094922 
  999500     5706.133   0.33373078     31.30673 0.0098498215          0.1    7.7558175 0.0061214046    89.806425    5.5912412 
  999600    5706.7413   0.33207563     31.31051 0.0098498215          0.1    7.8773446 0.0060361704    88.916382    4.4729955 
  999700    5707.3246    0.3335968    31.313362 0.0098498215          0.1    8.7692895 0.0055730578    90.388463     3.354743 
  999800    5707.8801    0.3324467    31.316568 0.0098498215          0.1    8.9084247 0.0055175167    88.736187    2.2364971 
  999900    5708.4291   0.33317094    31.319589 0.0098498215          0.1    9.0488245 0.0054440456    88.695167    1.1182495 
 1000000    5708.9708   0.33375168    31.323348 0.0098498215          0.1    9.2660646 0.0053178727    87.816666            0 
Loop time of 11182.5 on 4 procs for 1000000 steps with 174608 atoms

Performance: 41087.733 tau/day, 89.425 timesteps/s
231.6% CPU use with 1 MPI tasks x 4 OpenMP threads

MPI task timing breakdown:
Section |  min time  |  avg time  |  max time  |%varavg| %total
---------------------------------------------------------------
Pair    | 3475.5     | 3475.5     | 3475.5     |   0.0 | 31.08
Neigh   | 143.11     | 143.11     | 143.11     |   0.0 |  1.28
Comm    | 1213.3     | 1213.3     | 1213.3     |   0.0 | 10.85
Output  | 27.865     | 27.865     | 27.865     |   0.0 |  0.25
Modify  | 5714.8     | 5714.8     | 5714.8     |   0.0 | 51.11
Other   |            | 607.9      |            |       |  5.44

Nlocal:    174608 ave 174608 max 174608 min
Histogram: 1 0 0 0 0 0 0 0 0 0
Nghost:    66662 ave 66662 max 66662 min
Histogram: 1 0 0 0 0 0 0 0 0 0
Neighs:    0 ave 0 max 0 min
Histogram: 1 0 0 0 0 0 0 0 0 0

Total # of neighbors = 0
Ave neighs/atom = 0
Neighbor list builds = 321965
Dangerous builds = 0

Please see the log.cite file for references relevant to this simulation

Total wall time: 3:07:07
