#package gpu 1
#suffix gpu
# variable rho equal 0.03

units lj
atom_style atomic

lattice fcc 0.975
Lattice spacing in x,y,z = 1.60085 1.60085 1.60085
region box block 0 60 0 30 0 30
create_box 2 box
Created orthogonal box = (0 0 0) to (96.0513 48.0256 48.0256)
  1 by 1 by 1 MPI processor grid
create_atoms 1 box
Created 216000 atoms
  Time spent = 0.0426719 secs
mass 1 4.0
mass 2 0.5


pair_style lj/cut 2.5
pair_coeff 1 1 1.0 1.0 2.5
pair_coeff 2 2 0.5 0.88 2.5
pair_coeff 1 2 0.2 1.0 2.5
#pair_coeff 1 2 1.5 0.8 2.5
pair_modify mix geometric
neigh_modify every 1 delay 0 check yes

variable R equal 12
region cylinder1 cylinder x $(0.5*ly) $(0.5*lz) $R EDGE EDGE units box
region cylinder1 cylinder x 24.012813670346833561 $(0.5*lz) $R EDGE EDGE units box
region cylinder1 cylinder x 24.012813670346833561 24.012813670346833561 $R EDGE EDGE units box
region cylinder1 cylinder x 24.012813670346833561 24.012813670346833561 12 EDGE EDGE units box

group cylinder1 region cylinder1
41820 atoms in group cylinder1
variable V equal PI*v_R*v_R*lx
# variable rho equal 0.1
variable natoms equal $V*${rho}
variable natoms equal 43452.5639148185*${rho}
variable natoms equal 43452.5639148185*0.30
variable natoms_in_cylinder equal count(cylinder1)
variable delete_fraction equal (${natoms_in_cylinder}-${natoms})/${natoms_in_cylinder}
variable delete_fraction equal (41820-${natoms})/${natoms_in_cylinder}
variable delete_fraction equal (41820-13035.7691744455)/${natoms_in_cylinder}
variable delete_fraction equal (41820-13035.7691744455)/41820
set group cylinder1 type 2
  41820 settings made for type
delete_atoms porosity cylinder1 ${delete_fraction} 12345
delete_atoms porosity cylinder1 0.688288637626841 12345
Deleted 28943 atoms, new total = 187057
#delete_atoms region cylinder1

region cylinder2 cylinder x $(0.5*ly) $(0.5*lz) $(v_R+6) EDGE EDGE units box
region cylinder2 cylinder x 24.012813670346833561 $(0.5*lz) $(v_R+6) EDGE EDGE units box
region cylinder2 cylinder x 24.012813670346833561 24.012813670346833561 $(v_R+6) EDGE EDGE units box
region cylinder2 cylinder x 24.012813670346833561 24.012813670346833561 18 EDGE EDGE units box
region cylinder3 cylinder x $(0.5*ly) $(0.5*lz) $(v_R+11) EDGE EDGE units box
region cylinder3 cylinder x 24.012813670346833561 $(0.5*lz) $(v_R+11) EDGE EDGE units box
region cylinder3 cylinder x 24.012813670346833561 24.012813670346833561 $(v_R+11) EDGE EDGE units box
region cylinder3 cylinder x 24.012813670346833561 24.012813670346833561 23 EDGE EDGE units box
group cylinder2 region cylinder2
66877 atoms in group cylinder2
group cylinder3 region cylinder3
126637 atoms in group cylinder3

group nve region cylinder3
126637 atoms in group nve
group langevin subtract cylinder3 cylinder2
59760 atoms in group langevin
group frozen subtract all cylinder3
60420 atoms in group frozen

region force cylinder x $(0.5*ly) $(0.5*lz) $(v_R-1) EDGE EDGE units box
region force cylinder x 24.012813670346833561 $(0.5*lz) $(v_R-1) EDGE EDGE units box
region force cylinder x 24.012813670346833561 24.012813670346833561 $(v_R-1) EDGE EDGE units box
region force cylinder x 24.012813670346833561 24.012813670346833561 11 EDGE EDGE units box
group inner dynamic all region cylinder1 every 1
dynamic group inner defined
#group gas dynamic all region force every 1
group gas type 2
12877 atoms in group gas

fix nve nve nve
fix langevin langevin langevin 0.50 0.50 1.0 12345 zero yes

variable gascount equal count(gas)

variable dP equal 0.001
variable measured_rho equal mass(gas)/(PI*(v_R-1)*(v_R-1)*lx)
variable force equal v_dP/v_measured_rho
variable force equal v_dP/v_rho

velocity all create 0.1 87287
velocity frozen set 0 0 0

compute chunk all chunk/atom bin/cylinder x lower $(lx) $(0.5*ly) $(0.5*lz) 0 $(v_R+5) 30 units box
compute chunk all chunk/atom bin/cylinder x lower 96.051254681387334244 $(0.5*ly) $(0.5*lz) 0 $(v_R+5) 30 units box
compute chunk all chunk/atom bin/cylinder x lower 96.051254681387334244 24.012813670346833561 $(0.5*lz) 0 $(v_R+5) 30 units box
compute chunk all chunk/atom bin/cylinder x lower 96.051254681387334244 24.012813670346833561 24.012813670346833561 0 $(v_R+5) 30 units box
compute chunk all chunk/atom bin/cylinder x lower 96.051254681387334244 24.012813670346833561 24.012813670346833561 0 17 30 units box

compute displacement nve displace/atom
compute mean_displacement nve reduce ave c_displacement[4]

compute vmax all reduce max vx
variable volume equal count(gas)/v_V

thermo_style custom step time temp c_mean_displacement v_volume v_force c_vmax dt spcpu cpuremain
thermo 100

compute keAtom all ke/atom
dump dump all custom 1000 trajectory.bin id type x y z c_keAtom

fix flow gas addforce v_force 0.0 0.0
run 5000
No /omp style for force computation currently active
Per MPI rank memory allocation (min/avg/max) = 91.13 | 91.13 | 91.13 Mbytes
Step Time Temp c_mean_displacement v_volume v_force c_vmax Dt S/CPU CPULeft 
       0            0  0.067759513            0   0.29634615 0.0033333333    0.7749463        0.005            0            0 
     100          0.5   0.10292766  0.083077742   0.29634615 0.0033333333     2.540399        0.005     99.76305    49.116428 
     200            1   0.15110864   0.13893575   0.29634615 0.0033333333     2.857741        0.005      99.8259    48.098883 
     300          1.5   0.17655298   0.19292063   0.29634615 0.0033333333    2.7619813        0.005    101.72434    46.798981 
     400            2    0.1946897   0.23856025   0.29634615 0.0033333333    3.1484582        0.005    100.81245    45.759754 
     500          2.5   0.20773987    0.2761214   0.29634615 0.0033333333    3.1523804        0.005     98.24852    44.972433 
     600            3   0.21628967   0.30581721   0.29634615 0.0033333333    3.6680902        0.005    100.57943    43.935292 
     700          3.5   0.22224857   0.32704844   0.29634615 0.0033333333    2.9785538        0.005    100.74593    42.900314 
     800            4   0.22772237   0.33969203   0.29634615 0.0033333333    3.1941347        0.005    101.06727    41.859363 
     900          4.5   0.23500218   0.34578614   0.29634615 0.0033333333    2.8556736        0.005     100.8695    40.838697 
    1000            5   0.24026033   0.34781968   0.29634615 0.0033333333    3.1924297        0.005    100.05033    39.856357 
    1100          5.5   0.24543128   0.34817236   0.29634615 0.0033333333    3.3327289        0.005    98.720469    38.918632 
    1200            6   0.24991554   0.35060702   0.29634615 0.0033333333    3.3624715        0.005    99.127392    37.955202 
    1300          6.5   0.25416535   0.35519937   0.29634615 0.0033333333     4.064905        0.005    99.340666    36.978626 
    1400            7   0.25690035   0.36394148   0.29634615 0.0033333333    3.5303344        0.005    98.614281    36.016822 
    1500          7.5   0.25920801   0.37565715   0.29634615 0.0033333333    3.6106882        0.005    100.39838    35.006006 
    1600            8   0.26351874   0.38803424   0.29634615 0.0033333333    3.9060673        0.005    100.46201    33.995697 
    1700          8.5   0.26703205   0.40068164   0.29634615 0.0033333333    3.3105078        0.005    98.935751    33.016951 
    1800            9   0.27028279   0.41270105   0.29634615 0.0033333333    3.4768136        0.005    98.912956     32.03506 
    1900          9.5   0.27397603   0.42399132   0.29634615 0.0033333333     3.357842        0.005    99.796804      31.0355 
    2000           10   0.27702951   0.43473627   0.29634615 0.0033333333    3.6519518        0.005    98.052671    30.062429 
    2100         10.5   0.28102705   0.44534613   0.29634615 0.0033333333    3.4284029        0.005    100.39819    29.051996 
    2200           11   0.28464666   0.45700202   0.29634615 0.0033333333    4.0632493        0.005     100.3623    28.043326 
    2300         11.5   0.28659086   0.46954105   0.29634615 0.0033333333    3.2625643        0.005    99.545976    27.045317 
    2400           12   0.28908497   0.48223878   0.29634615 0.0033333333    3.4219148        0.005    98.332386    26.060192 
    2500         12.5   0.29194487   0.49530894   0.29634615 0.0033333333    3.5428317        0.005    99.785764    25.057709 
    2600           13    0.2930669   0.50714899   0.29634615 0.0033333333    3.4021536        0.005    99.682911    24.056206 
    2700         13.5    0.2945579   0.51856316   0.29634615 0.0033333333    3.9488367        0.005      99.7556    23.053956 
    2800           14    0.2956799   0.52823109   0.29634615 0.0033333333    3.9058305        0.005    98.905399    22.058463 
    2900         14.5   0.29726465   0.53603492   0.29634615 0.0033333333    3.7545349        0.005    99.638226     21.05651 
    3000           15   0.29874728   0.54351967   0.29634615 0.0033333333    3.4997682        0.005    98.628751    20.061294 
    3100         15.5   0.30030975   0.55033932   0.29634615 0.0033333333    3.9401814        0.005    98.372538    19.066491 
    3200           16    0.3000243   0.55703455   0.29634615 0.0033333333     3.376374        0.005    99.546071    18.063588 
    3300         16.5   0.30307625   0.56396829   0.29634615 0.0033333333    3.7776762        0.005    99.841536    17.059053 
    3400           17   0.30315661   0.57077821   0.29634615 0.0033333333    3.9801459        0.005    99.159522    16.057933 
    3500         17.5   0.30346722   0.57801799   0.29634615 0.0033333333    3.5900357        0.005    97.687644    15.062905 
    3600           18   0.30668721   0.58528989   0.29634615 0.0033333333    3.9572328        0.005    98.871965    14.061518 
    3700         18.5   0.30720444   0.59316052   0.29634615 0.0033333333    3.9495135        0.005    98.143803    13.062225 
    3800           19   0.30769907   0.60064213   0.29634615 0.0033333333    4.1605861        0.005    97.773905    12.063117 
    3900         19.5   0.30835292   0.60836055   0.29634615 0.0033333333    3.5380429        0.005    98.574394    11.060452 
    4000           20   0.31076808   0.61640892   0.29634615 0.0033333333      3.65072        0.005    97.925365    10.058879 
    4100         20.5   0.31107187   0.62520947   0.29634615 0.0033333333    3.8053817        0.005    97.688782    9.0568923 
    4200           21    0.3127932   0.63390269   0.29634615 0.0033333333    3.6526971        0.005    98.421521    8.0524218 
    4300         21.5    0.3133376   0.64229067   0.29634615 0.0033333333    3.4858764        0.005    98.666221    7.0470029 
    4400           22   0.31412279   0.65051116   0.29634615 0.0033333333    3.3428102        0.005    98.826142    6.0409923 
    4500         22.5   0.31475395   0.65856581   0.29634615 0.0033333333    3.4751385        0.005    98.181572     5.035459 
    4600           23   0.31564799   0.66671101   0.29634615 0.0033333333    4.0413625        0.005    98.893203    4.0287237 
    4700         23.5   0.31657311   0.67471256   0.29634615 0.0033333333     3.577383        0.005    97.858834    3.0224811 
    4800           24   0.31685714   0.68274245   0.29634615 0.0033333333    4.0811946        0.005    98.753824    2.0152009 
    4900         24.5   0.31691398   0.69061457   0.29634615 0.0033333333    3.6485766        0.005     98.47201     1.007762 
    5000           25   0.31815615   0.69830794   0.29634615 0.0033333333    3.8105182        0.005    95.926309            0 
Loop time of 50.4228 on 4 procs for 5000 steps with 187057 atoms

Performance: 42837.744 tau/day, 99.161 timesteps/s
218.9% CPU use with 1 MPI tasks x 4 OpenMP threads

MPI task timing breakdown:
Section |  min time  |  avg time  |  max time  |%varavg| %total
---------------------------------------------------------------
Pair    | 17.539     | 17.539     | 17.539     |   0.0 | 34.78
Neigh   | 0.42043    | 0.42043    | 0.42043    |   0.0 |  0.83
Comm    | 4.7963     | 4.7963     | 4.7963     |   0.0 |  9.51
Output  | 0.16908    | 0.16908    | 0.16908    |   0.0 |  0.34
Modify  | 23.991     | 23.991     | 23.991     |   0.0 | 47.58
Other   |            | 3.507      |            |       |  6.96

Nlocal:    187057 ave 187057 max 187057 min
Histogram: 1 0 0 0 0 0 0 0 0 0
Nghost:    67488 ave 67488 max 67488 min
Histogram: 1 0 0 0 0 0 0 0 0 0
Neighs:    0 ave 0 max 0 min
Histogram: 1 0 0 0 0 0 0 0 0 0

Total # of neighbors = 0
Ave neighs/atom = 0
Neighbor list builds = 647
Dangerous builds = 0

reset_timestep 0
fix vx all ave/chunk 10 10000 100000 chunk vx ave running file velocity.txt

fix dt all dt/reset 10 NULL NULL 0.05 units box

run 100000
No /omp style for force computation currently active
Per MPI rank memory allocation (min/avg/max) = 101.1 | 101.1 | 101.1 Mbytes
Step Time Temp c_mean_displacement v_volume v_force c_vmax Dt S/CPU CPULeft 
       0           25   0.31815615   0.69830794   0.29634615 0.0033333333    3.8105182  0.010067893            0            0 
     100    26.106252   0.31906337   0.71396064   0.29634615 0.0033333333    3.8114328  0.010447066    85.295486    1171.2235 
     200    27.213465   0.32027375   0.72853814   0.29634615 0.0033333333    3.8755047  0.012048054    83.835309    1180.2403 
     300    28.330879   0.32098581    0.7420344   0.29634615 0.0033333333    4.1749524  0.011074971    83.360144    1184.7101 
     400    29.409093   0.32186109   0.75750894   0.29634615 0.0033333333    3.8497856  0.010735657    82.985751    1187.6929 
     500    30.511273   0.32372681   0.77282099   0.29634615 0.0033333333    3.8847097  0.010950726     84.68835    1184.1795 
     600    31.594131   0.32432137   0.78634562   0.29634615 0.0033333333    3.5617372    0.0104081    85.240951    1180.1755 
     700    32.690376   0.32453653   0.80100975   0.29634615 0.0033333333    3.5893486  0.011964449    84.014841    1179.4091 
     800    33.779179   0.32577287   0.81493745   0.29634615 0.0033333333    4.1089019   0.01045205    84.606812     1177.504 
     900    34.835527   0.32589556    0.8292856   0.29634615 0.0033333333    3.9438489  0.011228127    86.191655    1173.3666 
    1000     35.89925   0.32553524   0.84248508   0.29634615 0.0033333333    3.5098475  0.011604077    84.171337    1172.5815 
    1100    36.997676   0.32588641    0.8569112   0.29634615 0.0033333333    4.0686341  0.010609655    83.114116    1173.0819 
    1200    38.066864    0.3272372   0.87049801   0.29634615 0.0033333333    3.4475665  0.010589673    84.845067    1171.2775 
    1300    39.138749    0.3265913   0.88447573   0.29634615 0.0033333333    3.7731927  0.011437722    84.365461    1170.0779 
    1400    40.197769   0.32846669   0.89777885   0.29634615 0.0033333333    4.3107676 0.0097746133    84.899594    1168.3553 
    1500    41.284138    0.3279586   0.91225284   0.29634615 0.0033333333    3.4546769  0.010541363    86.504217    1165.2705 
    1600    42.329338   0.32986938   0.92656807   0.29634615 0.0033333333    4.8441658 0.0098503445    84.227403    1164.3486 
    1700     43.36967   0.32990853   0.93951176   0.29634615 0.0033333333    3.9181451  0.010985514    84.851263    1162.8908 
    1800    44.458673   0.32975658   0.95316288   0.29634615 0.0033333333    3.9033687 0.0092968133    85.697222    1160.8293 
    1900    45.506115   0.32932802   0.96599551   0.29634615 0.0033333333    3.7019589   0.01177709    84.738567    1159.5435 
    2000    46.617445   0.33164617   0.97811847   0.29634615 0.0033333333    3.6285771  0.011132978    84.701193    1158.2939 
    2100    47.758716   0.33110856   0.99089168   0.29634615 0.0033333333    3.4722405  0.010937659    84.550444     1157.149 
    2200    48.873386   0.33075531    1.0026249   0.29634615 0.0033333333    4.1488871  0.010459301    85.839337    1155.2111 
    2300    49.971272   0.33187366    1.0151595   0.29634615 0.0033333333    3.7068267  0.011147366    86.243246    1153.1087 
    2400     51.11396   0.33276526    1.0293568   0.29634615 0.0033333333    3.3578585  0.010078427    84.962642    1151.7956 
    2500    52.144382   0.33145386    1.0415131   0.29634615 0.0033333333    3.6125649  0.010241894    86.474807    1149.6907 
    2600    53.247396   0.33099789    1.0561516   0.29634615 0.0033333333    3.5878493  0.011493384    85.264153    1148.2738 
    2700    54.380322   0.33148517    1.0709532   0.29634615 0.0033333333    3.5042359  0.011646351    86.406079    1146.3165 
    2800    55.485743   0.33172509    1.0849628   0.29634615 0.0033333333    3.7557223  0.011115939    86.956893    1144.1619 
    2900    56.570469   0.33355588    1.0976712   0.29634615 0.0033333333    3.8192866  0.011415243    85.459561    1142.7511 
    3000    57.705706   0.33241514    1.1118672   0.29634615 0.0033333333    3.8145539  0.011035546    85.720656    1141.2412 
    3100    58.788136   0.33258369    1.1258646   0.29634615 0.0033333333    3.8663569  0.010685889    85.611529    1139.7999 
    3200    59.892054   0.33425427    1.1403152   0.29634615 0.0033333333    3.6946158  0.011046445    85.652002     1138.359 
    3300    60.967675   0.33481118     1.153602   0.29634615 0.0033333333    3.9456439  0.011161371     86.35296    1136.6569 
    3400    62.020342   0.33428667    1.1664958   0.29634615 0.0033333333    3.8280637  0.010323377    86.463006     1134.945 
    3500    63.050562   0.33459093    1.1788119   0.29634615 0.0033333333    4.2038777  0.010039408    86.319638    1133.3178 
    3600    64.150729   0.33391372    1.1917745   0.29634615 0.0033333333    3.7211881  0.010035841    85.996485    1131.8331 
    3700    65.211555   0.33378812    1.2057334   0.29634615 0.0033333333    3.7393447  0.010785253    85.614325     1130.501 
    3800    66.239617   0.33427396    1.2183123   0.29634615 0.0033333333    3.8717885  0.011114687    85.497189     1129.218 
    3900    67.316454    0.3346016    1.2321764   0.29634615 0.0033333333    3.7770761  0.010963232    85.788825    1127.8429 
    4000    68.408781   0.33399675    1.2467741   0.29634615 0.0033333333    3.5514688  0.011381997    84.797226    1126.8053 
    4100     69.44918   0.33372457    1.2606769   0.29634615 0.0033333333    3.4784533  0.010160037    85.166905    1125.6412 
    4200    70.458002   0.33384035    1.2743541   0.29634615 0.0033333333    3.8593772  0.010593579    85.602793    1124.3401 
    4300    71.499148   0.33530971    1.2870189   0.29634615 0.0033333333    4.2444644  0.010475414    85.392941    1123.1092 
    4400    72.555419   0.33422746    1.3013139   0.29634615 0.0033333333    3.7389613  0.011358399    85.735795    1121.7792 
    4500    73.654049   0.33447313    1.3152276   0.29634615 0.0033333333    3.7803959  0.010581149    85.055215    1120.6545 
    4600    74.710125   0.33580896    1.3293093   0.29634615 0.0033333333     4.449867  0.011114211    85.931472     1119.279 
    4700    75.807643   0.33479022    1.3445261   0.29634615 0.0033333333    4.0189601  0.010990892    85.863429    1117.9312 
    4800    76.835167   0.33537895    1.3575969   0.29634615 0.0033333333    3.9718428  0.010779534    86.165892      1116.51 
    4900    77.879414   0.33581726    1.3720001   0.29634615 0.0033333333    4.1732911  0.010848727    84.984229    1115.4126 
    5000    78.917945   0.33541347    1.3864304   0.29634615 0.0033333333    4.1991619  0.010550234    85.115937    1114.2774 
    5100    79.998782   0.33377652    1.4010655   0.29634615 0.0033333333    3.7439678  0.011432944     83.82715    1113.4767 
    5200    81.072757   0.33406163    1.4161971   0.29634615 0.0033333333    3.9599747  0.010079127    85.558649    1112.2209 
    5300    82.129146   0.33564282     1.431915   0.29634615 0.0033333333    4.0718169  0.009711873    83.896836     1111.382 
    5400    83.197003   0.33628944    1.4476114   0.29634615 0.0033333333    3.8176335  0.010488457    85.565299    1110.1229 
    5500    84.230721   0.33638746    1.4625502   0.29634615 0.0033333333    3.7073559  0.011386672    86.254277    1108.7066 
    5600    85.321771   0.33469027    1.4793612   0.29634615 0.0033333333    3.8083219  0.010746027    85.649063    1107.4377 
    5700    86.419645   0.33642673    1.4950258   0.29634615 0.0033333333    4.5721212   0.01024401    85.101897    1106.2964 
    5800    87.488014   0.33749391    1.5100616   0.29634615 0.0033333333    4.2894442  0.010697547    85.867489    1104.9839 
    5900    88.566575   0.33592555    1.5249143   0.29634615 0.0033333333    4.1143492  0.011168478     85.27185    1103.8061 
    6000    89.622384   0.33688032    1.5403474   0.29634615 0.0033333333     3.903838  0.010918127    85.255852    1102.6319 
    6100    90.672695   0.33697617    1.5558977   0.29634615 0.0033333333    3.6788929  0.011079917    84.972952    1101.5179 
    6200     91.76274   0.33640214    1.5717748   0.29634615 0.0033333333    3.5385775  0.010610573    86.481779    1100.0912 
    6300    92.860963   0.33557301    1.5889122   0.29634615 0.0033333333    3.6550873  0.011132281    85.762863    1098.8173 
    6400    93.927715   0.33617364    1.6055228   0.29634615 0.0033333333    3.6007046  0.010543318    84.753293    1097.7499 
    6500    94.983292   0.33649568    1.6212174   0.29634615 0.0033333333    3.6157119  0.011728347    85.509408    1096.5289 
    6600    96.062037   0.33687064    1.6364613   0.29634615 0.0033333333    4.2059682  0.010682257    85.951935    1095.2243 
    6700    97.130698   0.33650468    1.6526918   0.29634615 0.0033333333    3.6761536  0.010600304    84.646545    1094.1737 
    6800    98.133095   0.33720899    1.6678972   0.29634615 0.0033333333    4.2241951  0.010374604    85.443806    1092.9683 
    6900     99.20143   0.33680753    1.6842503   0.29634615 0.0033333333    3.6490088  0.011145559    85.603981    1091.7343 
    7000    100.27633   0.33724069    1.7008936   0.29634615 0.0033333333    4.0927131  0.010296547    85.464681    1090.5274 
    7100    101.30573   0.33739392    1.7176014   0.29634615 0.0033333333    3.9192234  0.011131376    84.655856    1089.4679 
    7200    102.35962   0.33738843    1.7348676   0.29634615 0.0033333333    3.7503186  0.010690088    85.299059    1088.2902 
    7300    103.39489   0.33732996    1.7522057   0.29634615 0.0033333333    3.8815707  0.010173634    85.829764    1087.0206 
    7400    104.35039   0.33686691    1.7670895   0.29634615 0.0033333333    4.0497311  0.010023366    85.943287    1085.7345 
    7500    105.33428   0.33596255    1.7819865   0.29634615 0.0033333333    4.4358268 0.0097627812     85.41066    1084.5413 
    7600    106.38395    0.3373348    1.7984554   0.29634615 0.0033333333    4.1423576  0.010104324    85.888009    1083.2695 
    7700     107.4364   0.33815062    1.8158843   0.29634615 0.0033333333    3.8619823  0.010520853    84.086812    1082.2994 
    7800    108.51361   0.33636865    1.8323201   0.29634615 0.0033333333    3.8217021  0.010850432    85.089656     1081.158 
    7900     109.5867   0.33651305    1.8497214   0.29634615 0.0033333333    4.0180114  0.010951063    84.343916     1080.137 
    8000    110.65236   0.33635886    1.8658551   0.29634615 0.0033333333    3.7041241  0.010656754    83.735958    1079.2108 
    8100    111.71973   0.33700836    1.8829713   0.29634615 0.0033333333    3.7328767  0.010931707    85.409721    1078.0124 
    8200     112.7912   0.33732974    1.9004753   0.29634615 0.0033333333    3.9211806  0.010562724    84.963502    1076.8836 
    8300    113.88473   0.33590625    1.9163638   0.29634615 0.0033333333    3.9999841  0.010929584     84.30772    1075.8548 
    8400    114.94212   0.33657753    1.9333494   0.29634615 0.0033333333    3.6727225  0.010918577    85.838669    1074.5915 
    8500    115.98078   0.33773134     1.949756   0.29634615 0.0033333333    3.9398613  0.010849205    84.875302    1073.4729 
    8600    117.06556   0.33793451    1.9674112   0.29634615 0.0033333333    3.7104921  0.010607908     85.10314    1072.3193 
    8700    118.10631   0.33764114    1.9854974   0.29634615 0.0033333333    4.6206313 0.0096378855    85.704857    1071.0788 
    8800    119.14519   0.33682734    2.0039495   0.29634615 0.0033333333    4.3965555  0.010704375    85.587858    1069.8564 
    8900    120.20758   0.33756277    2.0208056   0.29634615 0.0033333333     3.814454  0.010657883    85.752623    1068.6122 
    9000     121.2439   0.33788051    2.0384281   0.29634615 0.0033333333      4.06189  0.011023989    84.149518    1067.5944 
    9100    122.32227   0.33825333    2.0581729   0.29634615 0.0033333333    4.2304967  0.010824106    80.107979    1067.1717 
    9200    123.37168   0.33810025    2.0769844   0.29634615 0.0033333333    4.0882662  0.011127847    84.908961    1066.0345 
    9300    124.44398   0.33724824    2.0947426   0.29634615 0.0033333333    4.0103708 0.0091959463    85.058182    1064.8763 
    9400    125.48348   0.33768568    2.1121268   0.29634615 0.0033333333    3.4538845  0.009582633    85.458168    1063.6646 
    9500     126.5081   0.33760841    2.1294421   0.29634615 0.0033333333     3.971981  0.011158736    84.556597    1062.5727 
    9600    127.60816   0.33905545    2.1479659   0.29634615 0.0033333333    3.8139447  0.010447415    85.931455    1061.3007 
    9700    128.67628   0.33615187    2.1677414   0.29634615 0.0033333333    4.4218723  0.010403623    85.586687    1060.0745 
    9800    129.69276   0.33688633    2.1854221   0.29634615 0.0033333333    4.8138693 0.0099427182    85.150013    1058.9047 
    9900     130.7608   0.33690213    2.2035836   0.29634615 0.0033333333    3.7651836  0.011646928    85.594757    1057.6793 
   10000    131.84576   0.33752588    2.2230062   0.29634615 0.0033333333    3.8243327  0.011291899    84.672416    1056.5695 
   10100    132.91232   0.33718633    2.2418735   0.29634615 0.0033333333     4.187588  0.010811976    84.253679    1055.5106 
   10200    133.95568   0.33679213    2.2605313   0.29634615 0.0033333333    4.4143726  0.010662303    85.262749    1054.3255 
   10300     135.0084   0.33762332    2.2801465   0.29634615 0.0033333333    4.2079222  0.010858027       85.089    1053.1615 
   10400    136.09374   0.33651651    2.2998501   0.29634615 0.0033333333    4.1690658  0.010763743    85.102985    1051.9957 
   10500    137.13548   0.33678644    2.3180452   0.29634615 0.0033333333    4.4625715  0.010445238    84.913723    1050.8519 
   10600    138.18761   0.33760763    2.3371058   0.29634615 0.0033333333    4.4686747  0.010547049    85.425829     1049.648 
   10700    139.21478   0.33722904    2.3557168   0.29634615 0.0033333333    5.2197267  0.009126724    85.534501    1048.4323 
   10800    140.25536   0.33801528      2.37463   0.29634615 0.0033333333    4.0900836  0.010225824    85.022508    1047.2756 
   10900    141.30652   0.33671065    2.3945137   0.29634615 0.0033333333    3.8936011  0.010618694    85.088862    1046.1111 
   11000    142.34255   0.33868917    2.4128482   0.29634615 0.0033333333    4.5065074 0.0099373779    83.229582    1045.1588 
   11100    143.39401   0.33668462     2.432543   0.29634615 0.0033333333    3.9580838  0.010100232    85.335868    1043.9645 
   11200    144.43811   0.33730573    2.4534578   0.29634615 0.0033333333    4.0153201  0.010246696    84.951301    1042.8126 
   11300    145.50838    0.3378404    2.4741603   0.29634615 0.0033333333     3.842747  0.010314818    85.569262    1041.5936 
   11400    146.55359   0.33783228    2.4950427   0.29634615 0.0033333333    3.6923889  0.010188763    85.724774    1040.3589 
   11500    147.58476   0.33706763    2.5157993   0.29634615 0.0033333333    4.2455756 0.0091979274    85.334201    1039.1666 
   11600    148.59389   0.33772018    2.5346215   0.29634615 0.0033333333    4.2873816 0.0099593042    85.251277    1037.9833 
   11700    149.62998      0.33776    2.5538367   0.29634615 0.0033333333    3.6285558  0.011236403    85.703911    1036.7533 
   11800    150.69995   0.33679094    2.5745093   0.29634615 0.0033333333    4.3510068  0.010969448     85.01203    1035.5955 
   11900    151.73025   0.33819133    2.5937482   0.29634615 0.0033333333    4.1269902  0.010162531    86.394279     1034.298 
   12000    152.73455   0.33748409    2.6139533   0.29634615 0.0033333333    4.2944258 0.0086314532     84.28158    1033.2156 
   12100    153.71664   0.33557223    2.6332583   0.29634615 0.0033333333    3.8719374  0.010102785    85.484399    1032.0103 
   12200    154.72067   0.33716025    2.6523681   0.29634615 0.0033333333    4.0358093 0.0097917327    85.212048    1030.8324 
   12300    155.79448   0.33688129    2.6733175   0.29634615 0.0033333333    3.8493267  0.010809236    86.772785    1029.5041 
   12400    156.85041   0.33712949    2.6944306   0.29634615 0.0033333333    3.9008775  0.010607042    85.626263    1028.2876 
   12500    157.93207   0.33876801    2.7163538   0.29634615 0.0033333333    4.3309165  0.010899244     85.64644      1027.07 
   12600    158.96015   0.33831985    2.7365865   0.29634615 0.0033333333    4.5965159  0.010117054     86.37421    1025.7849 
   12700    160.00935   0.33727692    2.7570782   0.29634615 0.0033333333    4.0118374   0.01038279    86.695231    1024.4724 
   12800    160.98953   0.33612868     2.776827   0.29634615 0.0033333333    4.0228253 0.0099329867    85.839038    1023.2407 
   12900    162.02583   0.33675002    2.7965583   0.29634615 0.0033333333    3.5505917  0.010369928    86.283147    1021.9696 
   13000    163.07546   0.33687989    2.8176917   0.29634615 0.0033333333    3.8244285  0.010252958    85.535879     1020.768 
   13100    164.13503   0.33699706    2.8388308   0.29634615 0.0033333333    4.0313489  0.010422049    84.609815    1019.6517 
   13200    165.18133   0.33741459    2.8584865   0.29634615 0.0033333333     3.757049  0.010276594     85.38112    1018.4642 
   13300     166.2256   0.33718654    2.8793526   0.29634615 0.0033333333    3.9074224  0.011151789    85.930733    1017.2282 
   13400    167.28076   0.33648656     2.900292   0.29634615 0.0033333333    4.3812906 0.0091620089    85.638518    1016.0189 
   13500    168.31376   0.33676548    2.9212493   0.29634615 0.0033333333    5.0087181 0.0097854245    86.716578    1014.7172 
   13600     169.3781   0.33666693    2.9427061   0.29634615 0.0033333333    3.4987399  0.011375837    85.796406    1013.4963 
   13700    170.43101   0.33789664    2.9637099   0.29634615 0.0033333333    4.0011339  0.011295697    87.365608    1012.1443 
   13800    171.48781    0.3392231    2.9843362   0.29634615 0.0033333333    3.9595276  0.010402669    85.837352    1010.9225 
   13900    172.53988   0.33937139    3.0057988   0.29634615 0.0033333333    3.7417699   0.01067685    86.059495     1009.683 
   14000    173.59024   0.33943431    3.0260692   0.29634615 0.0033333333    4.9779623 0.0099942741    84.393589    1008.5855 
   14100    174.60799   0.33938611    3.0467462   0.29634615 0.0033333333    4.0206573  0.011409802    84.980045    1007.4369 
   14200    175.62493   0.33932297    3.0674211   0.29634615 0.0033333333    4.2179873 0.0090719477     85.38265    1006.2545 
   14300    176.70476   0.33953794    3.0889092   0.29634615 0.0033333333    4.2252779  0.010553566    84.980613    1005.1053 
   14400    177.69392   0.33901463    3.1083778   0.29634615 0.0033333333    4.6740026 0.0095871297    84.716402    1003.9776 
   14500    178.71551   0.33747171    3.1306821   0.29634615 0.0033333333    3.6083024  0.010239368    85.712563    1002.7683 
   14600    179.70989   0.33804395    3.1515563   0.29634615 0.0033333333    3.8477613  0.010560811    85.519869    1001.5749 
   14700     180.7554   0.33892195    3.1733462   0.29634615 0.0033333333    4.5299994  0.010289409    85.725282    1000.3657 
   14800    181.78965   0.33696457    3.1951806   0.29634615 0.0033333333    4.0811254  0.010953766    84.342067    999.26709 
   14900    182.87324   0.33938263    3.2171078   0.29634615 0.0033333333    4.1260394  0.010462505    85.517375    998.07427 
   15000    183.93035   0.33914177    3.2394973   0.29634615 0.0033333333    4.2738248 0.0099753091    84.833175    996.93522 
   15100    184.95596   0.33819471    3.2609524   0.29634615 0.0033333333    4.0772555  0.010181941    84.338014    995.83454 
   15200    186.00607   0.33853713    3.2834107   0.29634615 0.0033333333    3.9974426 0.0089334356    85.505608    994.64242 
   15300    187.03137   0.33783574    3.3049514   0.29634615 0.0033333333    4.1230485  0.010751578    85.711617    993.43504 
   15400    188.03053   0.33881176    3.3267342   0.29634615 0.0033333333    3.9541783 0.0093572661    84.196631    992.34351 
   15500    188.99758   0.33801693     3.348391   0.29634615 0.0033333333    3.7254911 0.0095045156    85.773141    991.13173 
   15600    189.97591   0.33892855    3.3694065   0.29634615 0.0033333333     4.387832  0.010839057    83.724408    990.07488 
   15700    191.04071   0.33915242    3.3922301   0.29634615 0.0033333333    4.1804661  0.010247029    85.305513    988.89742 
   15800    192.07949   0.33939289    3.4148336   0.29634615 0.0033333333    4.4073704  0.010670471    84.929816    987.74766 
   15900    193.10736   0.34024951    3.4375374   0.29634615 0.0033333333    4.0174922  0.010648814    85.842657    986.53132 
   16000    194.13012   0.34012107    3.4598499   0.29634615 0.0033333333    3.8585057 0.0093497704    84.763638    985.39348 
   16100    195.17196   0.33968059    3.4829134   0.29634615 0.0033333333    4.1117249   0.01035428    84.500364    984.27427 
   16200    196.27515   0.33934192    3.5070447   0.29634615 0.0033333333    3.8338824  0.011241581    85.457803    983.08569 
   16300    197.33151   0.33957352    3.5296884   0.29634615 0.0033333333    4.0413265  0.010026711    85.320523      981.907 
   16400    198.34225   0.34084507    3.5525878   0.29634615 0.0033333333    3.9290863  0.010534958    85.434095    980.72044 
   16500    199.33587    0.3404231    3.5750104   0.29634615 0.0033333333    4.1059999  0.010082799    84.854336    979.57456 
   16600    200.34619   0.33985868    3.5974914   0.29634615 0.0033333333    4.2940569   0.01060398    84.509149    978.45246 
   16700    201.41399   0.33977304    3.6216322   0.29634615 0.0033333333    3.8649254  0.010301061    86.008406    977.22675 
   16800    202.48923   0.34019529    3.6454105   0.29634615 0.0033333333    3.8634986  0.010677786    85.424455    976.04114 
   16900    203.50293   0.34009966    3.6678583   0.29634615 0.0033333333    4.6909783  0.010333655    83.895577    974.96062 
   17000    204.52592   0.33817025    3.6913197   0.29634615 0.0033333333    4.1492731  0.010721371    84.281698    973.85211 
   17100    205.58664   0.33868497     3.715248   0.29634615 0.0033333333    4.2427241  0.010721144     84.59444    972.72144 
   17200    206.62138   0.33911091    3.7370915   0.29634615 0.0033333333    3.9524352  0.010700627    84.850027    971.57301 
   17300    207.67632   0.33917479     3.760671   0.29634615 0.0033333333    4.5894178  0.010091191    84.596641    970.44113 
   17400    208.64912    0.3399301    3.7824297   0.29634615 0.0033333333    4.3677515   0.00914326    85.813626    969.22908 
   17500    209.64745    0.3400209    3.8048388   0.29634615 0.0033333333    4.5085485  0.010769395    85.116956    968.06253 
   17600    210.67659   0.33901539    3.8284345   0.29634615 0.0033333333    4.5226692  0.010714516    84.503718     966.9358 
   17700    211.71959   0.33967887    3.8515802   0.29634615 0.0033333333    4.0476099   0.01021834    84.480298    965.80996 
   17800    212.76016   0.33906256    3.8749043   0.29634615 0.0033333333    4.5189197  0.010125147    85.335434    964.62869 
   17900    213.81488   0.33954916      3.89914   0.29634615 0.0033333333    4.2448685  0.010429794    84.764083    963.48375 
   18000    214.84133   0.33857595    3.9221435   0.29634615 0.0033333333    3.9742443  0.010280393    84.043847    962.38449 
   18100    215.88055   0.33795384    3.9458371   0.29634615 0.0033333333    3.9683596  0.010509652    84.944953    961.22711 
   18200    216.87639   0.34032499     3.968356   0.29634615 0.0033333333    4.4956476  0.010363592    85.476298    960.03662 
   18300    217.92461   0.33884232    3.9927281   0.29634615 0.0033333333     3.823653  0.011356881    85.510279    958.84428 
   18400    218.93521   0.33903271    4.0164045   0.29634615 0.0033333333    4.1778281  0.010579434    85.967385     957.6246 
   18500    219.99045    0.3393554    4.0412482   0.29634615 0.0033333333    4.1434351  0.010917579    85.751378    956.41846 
   18600    221.03372   0.33918046    4.0657309   0.29634615 0.0033333333    3.8482648  0.010176366    85.546416    955.22497 
   18700    222.02948   0.33970423    4.0880291   0.29634615 0.0033333333    3.8431758  0.011075735    85.577974    954.02987 
   18800    223.09743   0.33777978    4.1129211   0.29634615 0.0033333333    4.2196045  0.010816378    83.266643    952.97514 
   18900    224.11845   0.33923681    4.1367406   0.29634615 0.0033333333    4.2193284   0.01098003    85.398922     951.7902 
   19000    225.18559   0.34091038    4.1615327   0.29634615 0.0033333333    3.8309762  0.010913444    83.944035    950.69193 
   19100    226.25834   0.33958428    4.1862696   0.29634615 0.0033333333    4.0005688  0.010741956    86.008477    949.47157 
   19200    227.30788   0.34101818    4.2092797   0.29634615 0.0033333333    3.9176592 0.0095829408    86.262526    948.23739 
   19300    228.32301   0.33992151    4.2321686   0.29634615 0.0033333333    3.7440498   0.01109967    85.628168    947.03991 
   19400    229.31455   0.33953605    4.2551716   0.29634615 0.0033333333    4.1542431  0.010699298    85.080456    945.87397 
   19500    230.36222   0.33883522    4.2800222   0.29634615 0.0033333333    3.8655545  0.009823975    85.062305    944.70897 
   19600    231.39698   0.33821576    4.3053044   0.29634615 0.0033333333    3.9575828  0.010858268     85.93885    943.49467 
   19700    232.42386   0.33954662    4.3290775   0.29634615 0.0033333333    4.6286511  0.009979097    85.945946    942.28049 
   19800    233.45254   0.34032646    4.3542425   0.29634615 0.0033333333    4.6020137  0.010410264    85.865064    941.07127 
   19900    234.49771   0.33987812     4.378704   0.29634615 0.0033333333     4.015942  0.010263165    85.982523    939.85609 
   20000    235.52035   0.34005467    4.4035619   0.29634615 0.0033333333    4.1794393 0.0093021147    83.274694     938.7927 
   20100    236.52532    0.3401972    4.4274378   0.29634615 0.0033333333    4.7046722 0.0094677717    84.666331    937.64948 
   20200    237.53899   0.34012058    4.4524386   0.29634615 0.0033333333    4.7136184 0.0094702042    86.398692    936.41234 
   20300    238.59108   0.33967024    4.4780187   0.29634615 0.0033333333    3.9809248  0.010759324    85.604645    935.21813 
   20400    239.64812   0.33952392    4.5039534   0.29634615 0.0033333333    4.2589153   0.01062415    86.058895    934.00011 
   20500    240.68903   0.33980578    4.5300619   0.29634615 0.0033333333    3.6526656   0.01037269    86.196934    932.77543 
   20600    241.73511   0.33985697    4.5549886   0.29634615 0.0033333333    3.9590881  0.010509772    86.825002    931.51902 
   20700     242.7706   0.34006217    4.5794576   0.29634615 0.0033333333    3.9036666  0.010321921    85.784772    930.31713 
   20800     243.8042   0.33977698    4.6051981   0.29634615 0.0033333333    4.1182862   0.01006917    86.107498    929.09895 
   20900    244.80947   0.33960153    4.6294429   0.29634615 0.0033333333    3.8156417 0.0094431966    84.446841    927.96775 
   21000    245.78587   0.33881544    4.6534045   0.29634615 0.0033333333    4.3323053 0.0096733346    84.611744    926.82737 
   21100    246.82908   0.33999316    4.6790983   0.29634615 0.0033333333    3.9805327  0.010904762    85.841691    925.62327 
   21200    247.88501   0.33839408    4.7057255   0.29634615 0.0033333333    4.1512598  0.011033829    87.049024    924.35948 
   21300    248.91294   0.33932921    4.7320892   0.29634615 0.0033333333    4.1446495 0.0099234553    86.257985     923.1357 
   21400     249.9603    0.3390968    4.7588611   0.29634615 0.0033333333    4.3061802  0.011109546    85.576943     921.9464 
   21500    251.03413   0.33933961    4.7869792   0.29634615 0.0033333333    4.4221966  0.010567314    85.707957    920.75078 
   21600    252.10803   0.33965619    4.8140084   0.29634615 0.0033333333    3.8740504 0.0098858161    86.243547    919.52912 
   21700    253.11911   0.33868957    4.8395067   0.29634615 0.0033333333    4.0320303  0.010468634     85.79265    918.33003 
   21800    254.13869   0.34040878    4.8645047   0.29634615 0.0033333333    3.9922658 0.0096082067    85.733955    917.13411 
   21900    255.18584   0.34070669    4.8910726   0.29634615 0.0033333333      3.97313   0.01084229    86.185191    915.91667 
   22000    256.24743   0.33925161    4.9182809   0.29634615 0.0033333333    4.2050345  0.010553379    84.680245    914.77287 
   22100    257.32105   0.34014431    4.9456101   0.29634615 0.0033333333    4.4028486  0.010249213    86.202213    913.55524 
   22200     258.3814   0.33931573    4.9726368   0.29634615 0.0033333333    3.9343599  0.011045953    86.409301    912.32838 
   22300    259.45123   0.33895176    4.9990646   0.29634615 0.0033333333    3.8800658  0.010341612    85.870812    911.12744 
   22400    260.47805   0.33946306    5.0243256   0.29634615 0.0033333333     4.154798  0.010925012    83.762831    910.02835 
   22500     261.5182   0.34044773    5.0500223   0.29634615 0.0033333333    4.5558915  0.010363503    84.791826    908.87851 
   22600    262.53973   0.33926206    5.0759741   0.29634615 0.0033333333    3.9308134  0.010815552    85.354953    907.70176 
   22700    263.60902   0.34054644    5.1020947   0.29634615 0.0033333333    3.9668142  0.010396741    84.301823     906.5749 
   22800    264.64978   0.34048145     5.128259   0.29634615 0.0033333333     4.613235  0.010412436    85.321026    905.39953 
   22900    265.69626   0.34019141    5.1547331   0.29634615 0.0033333333    3.8337732  0.010705889    84.532568    904.26101 
   23000      266.729   0.33927848    5.1806029   0.29634615 0.0033333333    4.6009752  0.010764639    83.659396    903.16343 
   23100    267.78851   0.34073638    5.2069656   0.29634615 0.0033333333       3.9906  0.010511336    84.696456    902.01628 
   23200    268.84227   0.33821024    5.2327765   0.29634615 0.0033333333     4.644231  0.010272854     84.81909    900.86319 
   23300    269.89434     0.338704    5.2589239   0.29634615 0.0033333333    4.0275327  0.010372436    86.841433     899.6195 
   23400    270.95719   0.33951223    5.2855373   0.29634615 0.0033333333    3.9332988  0.010606894    84.737283     898.4702 
   23500    271.99193    0.3403338    5.3108803   0.29634615 0.0033333333    4.4080211  0.010005731    85.161026    897.30152 
   23600    273.04798   0.34030034    5.3374297   0.29634615 0.0033333333    4.1962268  0.010380277    84.482237    896.16334 
   23700    274.05527   0.34165872    5.3627413   0.29634615 0.0033333333    4.1151203 0.0087642312     85.75527     894.9682 
   23800    275.06841   0.34098256     5.388522   0.29634615 0.0033333333    4.0563074 0.0092811403    85.646282    893.77806 
   23900    276.06257   0.33976972    5.4142012   0.29634615 0.0033333333    3.9404043 0.0095101117    87.126144    892.52496 
   24000    277.00952   0.34051472    5.4381313   0.29634615 0.0033333333    4.3874434 0.0089517671    84.870338    891.36934 
   24100     278.0051   0.33956183     5.463455   0.29634615 0.0033333333    4.0721215  0.011153511    85.130794    890.20218 
   24200    278.99224   0.33957295    5.4890278   0.29634615 0.0033333333    4.3038313 0.0094359178    85.740878    889.00879 
   24300    280.00391   0.33880285    5.5147682   0.29634615 0.0033333333    4.1630003  0.010810864    84.878823    887.85251 
   24400    281.03027   0.34013908      5.54039   0.29634615 0.0033333333    4.4812168  0.010020063     85.90092    886.65262 
   24500    282.02685   0.34084123    5.5653207   0.29634615 0.0033333333    4.2957096 0.0095192463    85.131088    885.48546 
   24600    283.01446   0.34014355    5.5906033   0.29634615 0.0033333333     4.150867 0.0099726912    85.259335    884.31283 
   24700    284.02948   0.33960908    5.6157868   0.29634615 0.0033333333    4.1956874 0.0095964999    83.862297    883.19976 
   24800    285.00147   0.34043031    5.6393313   0.29634615 0.0033333333     4.222907 0.0097867059    84.673356    882.05142 
   24900    286.03114   0.34033411    5.6644744   0.29634615 0.0033333333    4.5026899  0.010433168     84.57612    880.90691 
   25000    287.09604   0.34041648    5.6896559   0.29634615 0.0033333333    4.1189723  0.010241459    84.985383    879.74501 
   25100    288.12823   0.33983261    5.7148128   0.29634615 0.0033333333    4.2295317  0.010704035    83.088217    878.66317 
   25200    289.16338   0.33975389    5.7405874   0.29634615 0.0033333333    3.9622455  0.009530246    84.112781    877.53685 
   25300    290.15669   0.33893247    5.7655273   0.29634615 0.0033333333    4.2611742    0.0101713     84.92201    876.37658 
   25400    291.17122   0.34138243    5.7916622   0.29634615 0.0033333333    3.9367414  0.010110483    85.366471    875.19818 
   25500     292.2108   0.34061687    5.8190912   0.29634615 0.0033333333    4.0306066  0.010799582    85.645548    874.00867 
   25600    293.26232   0.34089747    5.8469779   0.29634615 0.0033333333    3.7079352  0.010904395    84.940996    872.84749 
   25700    294.30626   0.34057497    5.8740296   0.29634615 0.0033333333    4.6314556  0.010223173    85.622295    871.65909 
   25800    295.33359   0.34042877    5.9008336   0.29634615 0.0033333333    4.0928201  0.010629023    86.273687    870.44549 
   25900    296.34073   0.34019275    5.9262372   0.29634615 0.0033333333    4.4350299  0.011230719    86.493888    869.22388 
   26000    297.38138   0.34018833    5.9524407   0.29634615 0.0033333333    3.9030544  0.011260082    84.351176    868.08635 
   26100    298.39684   0.34014929    5.9786399   0.29634615 0.0033333333    3.9356349 0.0097146621    84.215565    866.95386 
   26200    299.40662   0.34059932     6.004404   0.29634615 0.0033333333    4.3067252  0.010847134    85.601919    865.76678 
   26300    300.44092   0.34134703    6.0300675   0.29634615 0.0033333333    3.8807436  0.010160242    85.819894    864.57153 
   26400    301.46782   0.34076014    6.0556191   0.29634615 0.0033333333    4.8237855  0.010339852    84.987398    863.40833 
   26500    302.48842   0.34051092    6.0824874   0.29634615 0.0033333333    4.2221023   0.01029146    85.415913    862.22866 
   26600    303.44796   0.34067272     6.107424   0.29634615 0.0033333333    4.0969679  0.009129121    85.504143    861.04571 
   26700     304.4891   0.34111251    6.1334804   0.29634615 0.0033333333    4.2601533  0.010583048    86.239398     859.8355 
   26800    305.47546   0.34010041    6.1587493   0.29634615 0.0033333333    3.9794513  0.010475793    85.428526    858.65573 
   26900    306.46224   0.33958911    6.1843425   0.29634615 0.0033333333    4.4221873  0.009664616    86.834134    857.42453 
   27000    307.45878   0.34105121    6.2096256   0.29634615 0.0033333333    3.8061192  0.010345739    84.643248    856.27452 
   27100    308.49446   0.33957982    6.2354373   0.29634615 0.0033333333    5.1062986 0.0093073917    84.701262    855.12209 
   27200    309.49766    0.3403788     6.261819   0.29634615 0.0033333333    3.9744735  0.010550375     86.45479    853.90537 
   27300    310.51863   0.33884107    6.2880598   0.29634615 0.0033333333    3.8964042  0.010758216    86.890853    852.67363 
   27400    311.56407   0.34107894    6.3154038   0.29634615 0.0033333333    4.0628167  0.010560317    86.350417    851.46156 
   27500    312.55256   0.34028018    6.3410627   0.29634615 0.0033333333    3.8198048 0.0096842287    85.101033    850.29472 
   27600    313.59242   0.34153608     6.369232   0.29634615 0.0033333333     4.323118  0.010881823      86.3373    849.08367 
   27700    314.66123   0.34082509    6.3979485   0.29634615 0.0033333333    4.1472794  0.010672863    85.531483    847.90149 
   27800    315.72379   0.34003955    6.4262532   0.29634615 0.0033333333    4.0005586  0.010598562    86.195977    846.69599 
   27900    316.74359   0.34084645    6.4526316   0.29634615 0.0033333333    4.1168781  0.010184085    85.686788    845.50863 
   28000    317.77908   0.34046299    6.4804388   0.29634615 0.0033333333    4.3503052  0.010572868     85.43935    844.33011 
   28100    318.81666   0.33998156    6.5086603   0.29634615 0.0033333333    4.9377742 0.0099489698    85.313893    843.15605 
   28200    319.87669   0.34041293    6.5379843   0.29634615 0.0033333333    4.2850148 0.0094233949    85.870302    841.96267 
   28300    320.91598   0.34094192    6.5663152   0.29634615 0.0033333333    4.3622052  0.010554894    86.365477    840.75257 
   28400    321.93675   0.34041585    6.5943661   0.29634615 0.0033333333    3.8616767  0.010214314    85.340244    839.57791 
   28500    322.95525   0.33945785    6.6226148   0.29634615 0.0033333333    4.6696452 0.0087905569    85.681887    838.39155 
   28600    323.97237   0.33968007    6.6494956   0.29634615 0.0033333333    4.4965583  0.010463832     86.08599    837.19165 
   28700    325.01127   0.34014144    6.6778923   0.29634615 0.0033333333     4.467411  0.010499178    87.008358    835.96142 
   28800    326.01536   0.34065102    6.7044591   0.29634615 0.0033333333    4.2465007 0.0090895791    85.571461    834.77946 
   28900    327.01228    0.3403952    6.7307562   0.29634615 0.0033333333    4.5452265 0.0099134841    85.357576    833.60481 
   29000    328.05161   0.33956833    6.7583527   0.29634615 0.0033333333    4.8467423 0.0099947655    85.326268    832.43122 
   29100    329.05843   0.34001684    6.7855657   0.29634615 0.0033333333    4.4157804  0.010160429    85.336615     831.2573 
   29200    330.09228   0.34188632    6.8132398   0.29634615 0.0033333333    4.5153477 0.0099032717    85.869705    830.06575 
   29300    331.12533   0.34139398    6.8419505   0.29634615 0.0033333333    3.9794967    0.0105605    86.236277    828.86245 
   29400    332.16929   0.34078947    6.8705964   0.29634615 0.0033333333    4.5888165 0.0097415932    86.041029    827.66576 
   29500    333.12258   0.33979847    6.8967773   0.29634615 0.0033333333    4.0607602  0.010523789    85.142839     826.4986 
   29600    334.14357   0.34092949    6.9244551   0.29634615 0.0033333333    3.8932797 0.0085913204    84.616609    825.34877 
   29700    335.12417   0.34083919    6.9506969   0.29634615 0.0033333333    3.9281799  0.010696452    85.499838    824.16983 
   29800     336.1328   0.34077179    6.9774284   0.29634615 0.0033333333    4.0176298  0.010638185    85.266095     822.9985 
   29900     337.1761   0.34147198    7.0056797   0.29634615 0.0033333333    4.1158991 0.0099352233    84.818798    821.84166 
   30000    338.16004   0.34117172      7.03179   0.29634615 0.0033333333    4.8738037  0.010049247    82.911177    820.74797 
   30100     339.1543   0.34060115    7.0584442   0.29634615 0.0033333333    4.2042934 0.0098945619    84.394031    819.60431 
   30200    340.17351   0.34065095    7.0847113   0.29634615 0.0033333333    4.2255779  0.010032326     85.91058    818.41204 
   30300    341.17373   0.34057876    7.1114928   0.29634615 0.0033333333     4.576509  0.009474015    86.282898     817.2084 
   30400    342.14968   0.34032329    7.1379723   0.29634615 0.0033333333     4.077584  0.010990589    85.381277    816.03308 
   30500    343.23267   0.34086604    7.1675772   0.29634615 0.0033333333      3.97402  0.011476534    85.314987    814.85986 
   30600     344.2678   0.34082605     7.196078   0.29634615 0.0033333333    5.1732325 0.0091648602    85.488877    813.68123 
   30700    345.23042   0.34048084    7.2223939   0.29634615 0.0033333333    3.8493202  0.010303353    85.313893    812.50808 
   30800    346.28835   0.34115666     7.251586   0.29634615 0.0033333333    4.1231581  0.010105649    84.858885    811.34906 
   30900    347.30647   0.34048767    7.2803437   0.29634615 0.0033333333    4.0948822  0.010164811    85.172405    810.18021 
   31000    348.34457   0.34058641     7.309217   0.29634615 0.0033333333    4.0651893  0.010824868    84.242747    809.04017 
   31100    349.37907   0.34095679    7.3376112   0.29634615 0.0033333333    4.0345526  0.010223287    84.692864    807.88585 
   31200    350.39141    0.3404442    7.3658166   0.29634615 0.0033333333    3.9269293 0.0092456986    85.695454    806.70089 
   31300    351.37513   0.33947429    7.3929779   0.29634615 0.0033333333    4.4236125  0.010241307    86.080973    805.50459 
   31400    352.36872   0.33994998    7.4201008   0.29634615 0.0033333333    4.4970306  0.010020961    85.012892    804.34038 
   31500     353.3544   0.34140533    7.4474933   0.29634615 0.0033333333    4.2805583 0.0098573598    85.079818    803.17409 
   31600    354.35264   0.34040743    7.4755441   0.29634615 0.0033333333     4.171533  0.010113353    85.948166    801.98204 
   31700    355.38622   0.34068089    7.5037875   0.29634615 0.0033333333    4.2642953  0.010334586    86.255076    800.78125 
   31800    356.42244   0.34007273    7.5316581   0.29634615 0.0033333333    4.3516352  0.009414246    85.059907    799.61566 
   31900     357.4512   0.34025663    7.5601071   0.29634615 0.0033333333    3.9487048  0.010101521    85.671526    798.43208 
   32000    358.47905   0.34085749    7.5882577   0.29634615 0.0033333333    3.9594447  0.010602059    83.722152    797.30636 
   32100    359.49757   0.34100444     7.615853   0.29634615 0.0033333333    4.1257566  0.010740325    85.276288    796.13417 
   32200    360.54483   0.34001089    7.6443912   0.29634615 0.0033333333    4.2479528  0.010677162    82.878804     795.0334 
   32300    361.57103   0.33958602    7.6715885   0.29634615 0.0033333333    4.4192155  0.010074895    85.251346    793.86159 
   32400    362.58622   0.34030626    7.6986025   0.29634615 0.0033333333    4.3646097  0.010381558    84.868827    792.70081 
   32500    363.58345   0.34053528    7.7249694   0.29634615 0.0033333333    4.3213812  0.010878827    85.282392    791.52805 
   32600    364.60167   0.33996448    7.7523928   0.29634615 0.0033333333    4.2521953  0.010042301    83.473421    790.40783 
   32700    365.62381   0.33875549    7.7804301   0.29634615 0.0033333333    4.1349937 0.0090193326    85.470898    789.22952 
   32800    366.62189   0.33914817    7.8069685   0.29634615 0.0033333333    3.7460723 0.0098655558    86.208609    788.03074 
   32900    367.66792   0.33997084     7.834584   0.29634615 0.0033333333     4.529733  0.010604854    84.576682    786.87785 
   33000    368.71333   0.34108149    7.8626126   0.29634615 0.0033333333    4.4607598 0.0094885816    83.637343    785.75174 
   33100    369.70053   0.33990376    7.8882944   0.29634615 0.0033333333    4.1643759  0.010069724    83.782056    784.62103 
   33200    370.70779   0.33988804    7.9157432   0.29634615 0.0033333333    4.3145565  0.010325699    85.047764    783.45421 
   33300    371.73302   0.34009026    7.9425432   0.29634615 0.0033333333    4.1574168  0.010467282    85.276566    782.28101 
   33400    372.78382   0.33994951    7.9715415   0.29634615 0.0033333333    4.3538497 0.0099017412    84.604303    781.12639 
   33500    373.82711    0.3405853    7.9990666   0.29634615 0.0033333333    4.1194154  0.010220177    85.245022    779.95398 
   33600    374.86924   0.34146216     8.026244   0.29634615 0.0033333333     4.240282  0.010604026    85.554251    778.77319 
   33700     375.9388   0.34082992    8.0540849   0.29634615 0.0033333333    4.0080018  0.010031921    85.601273     777.5912 
   33800    376.94443   0.34011988    8.0802477   0.29634615 0.0033333333    4.1142897  0.010310111    85.942988    776.40019 
   33900    377.89635   0.34122163    8.1057165   0.29634615 0.0033333333    4.5366424  0.010214185    85.799056    775.21316 
   34000    378.92144   0.34021247     8.132644   0.29634615 0.0033333333    4.3873004 0.0093407598    83.372025    774.09211 
   34100    379.83947   0.34086532    8.1571759   0.29634615 0.0033333333    3.8721822 0.0094411972     83.77399    772.95948 
   34200    380.89669   0.34010189    8.1840514   0.29634615 0.0033333333    4.2350757  0.010949421     84.47259     771.8075 
   34300    381.91876   0.34091472    8.2120885   0.29634615 0.0033333333     4.281193 0.0093572876    84.513781    770.65423 
   34400    382.90171   0.34090225    8.2380262   0.29634615 0.0033333333    3.8762444  0.010334073    85.279045    769.48054 
   34500    383.89016   0.33955061    8.2646742   0.29634615 0.0033333333    4.2290406 0.0092311378    83.873549    768.34416 
   34600    384.85627   0.34035887    8.2904703   0.29634615 0.0033333333    4.4810617  0.010226521    84.119292    767.20087 
   34700    385.86235   0.33972548    8.3176263   0.29634615 0.0033333333    4.1599841 0.0091752116     84.23307     766.0543 
   34800    386.83779   0.34063136    8.3430952   0.29634615 0.0033333333    4.2735201 0.0093326717    84.948428    764.88877 
   34900    387.82702   0.34009032    8.3697524   0.29634615 0.0033333333    4.4983684   0.01011934    86.099332    763.69381 
   35000    388.83289   0.34093086    8.3970806   0.29634615 0.0033333333    4.7299972 0.0099299572    83.768302    762.55907 
   35100    389.87915   0.33997727    8.4255039   0.29634615 0.0033333333    4.0987352  0.010156278    80.522108    761.51298 
   35200    390.92381    0.3408223    8.4541241   0.29634615 0.0033333333    4.0181858   0.01156223    85.891474    760.32286 
   35300    391.98994   0.34022218    8.4830383   0.29634615 0.0033333333    4.0691547  0.010531026     85.56509    759.14102 
   35400    392.93178   0.33947571    8.5078874   0.29634615 0.0033333333    4.2665168  0.010375717    85.032712    757.97261 
   35500    393.93357   0.33887748    8.5349985   0.29634615 0.0033333333    4.3796793  0.010611751    85.774175    756.78569 
   35600    394.98315   0.33936401    8.5630905   0.29634615 0.0033333333    4.0670358  0.010834789    84.291878    755.63597 
   35700    395.99945   0.34001318    8.5905522   0.29634615 0.0033333333    3.9876035  0.010106788    85.158985    754.46429 
   35800    396.97176   0.34149567    8.6169994   0.29634615 0.0033333333    4.3500361  0.009898507    84.950665    753.29777 
   35900    397.91094   0.34159471    8.6420956   0.29634615 0.0033333333    4.0195277 0.0098659892    85.577607    752.11578 
   36000    398.88613   0.34174205    8.6684977   0.29634615 0.0033333333    4.2501612   0.01027193    83.925424    750.97476 
   36100    399.89835   0.34081103    8.6950316   0.29634615 0.0033333333    4.1383749 0.0097611141    83.128826    749.85368 
   36200     400.9087   0.34066089    8.7219838   0.29634615 0.0033333333    4.1782892  0.011052197    86.744574    748.64377 
   36300    401.95225   0.34082178    8.7505196   0.29634615 0.0033333333    4.5732458  0.010707402    85.374708    747.46663 
   36400    402.98992   0.33984353    8.7786577   0.29634615 0.0033333333    4.2574048 0.0099258353    85.802373    746.27933 
   36500    404.01561   0.34134127    8.8062845   0.29634615 0.0033333333    4.0754721  0.010015815    85.619079    745.09648 
   36600    405.05059   0.34148869    8.8350448   0.29634615 0.0033333333    4.7270251 0.0097484453    85.282964     743.9217 
   36700    406.07178   0.34018257    8.8630813   0.29634615 0.0033333333    4.0202158  0.010926647    86.389883      742.721 
   36800    407.10723   0.34102838    8.8907469   0.29634615 0.0033333333    3.6816381  0.009509116    84.822246    741.55729 
   36900    408.14078   0.34189057    8.9191115   0.29634615 0.0033333333    4.3825952  0.010267626    85.334063     740.3814 
   37000    409.14163   0.34009476    8.9466564   0.29634615 0.0033333333    4.3004964 0.0091892017    84.150852    739.23359 
   37100    410.11677   0.34026435    8.9730448   0.29634615 0.0033333333    3.9930187  0.010694821    84.664622    738.07333 
   37200    411.12543   0.34110103    9.0000962   0.29634615 0.0033333333    3.9460696  0.010257932    85.790509    736.88679 
   37300    412.15786   0.33933295      9.02816   0.29634615 0.0033333333    4.0105829  0.010167542    84.994407    735.71872 
   37400    413.17693   0.34058806    9.0563484   0.29634615 0.0033333333    3.9631943 0.0097859979    85.170399    734.54653 
   37500    414.21541   0.33956635    9.0856253   0.29634615 0.0033333333    4.0436925  0.010491666    84.634008    733.38674 
   37600    415.23171   0.34024197    9.1139795   0.29634615 0.0033333333     4.439289  0.010560548    85.327726    732.21089 
   37700     416.2607   0.33982917    9.1437526   0.29634615 0.0033333333     3.872944  0.010509214    84.814991    731.04676 
   37800    417.25115   0.33994889    9.1718763   0.29634615 0.0033333333    4.3840515  0.010526257     82.85423    729.92847 
   37900    418.27619   0.34155099    9.2004824   0.29634615 0.0033333333    4.1405386  0.010719196    84.992099    728.75997 
   38000    419.30941    0.3406848     9.229481   0.29634615 0.0033333333    3.9317154  0.010285648    83.726631    727.62044 
   38100     420.3183   0.34004285     9.256874   0.29634615 0.0033333333    4.1609389  0.010146793     84.21641    726.46934 
   38200    421.36272   0.34045528    9.2847662   0.29634615 0.0033333333    4.9407986 0.0098713752    85.005035    725.30022 
   38300    422.35145   0.33953465    9.3116354   0.29634615 0.0033333333    4.7042217 0.0090357987    84.899148    724.13343 
   38400    423.31662   0.33976391    9.3377894   0.29634615 0.0033333333    4.4225007 0.0097129684    84.816637    722.96842 
   38500    424.32321   0.33922758    9.3650166   0.29634615 0.0033333333    4.3991685  0.010267419    85.796107    721.78184 
   38600    425.35374    0.3383978    9.3925084   0.29634615 0.0033333333    4.0326846  0.011190663     85.50634    720.60165 
   38700    426.42333   0.33967915    9.4220138   0.29634615 0.0033333333    4.2154671 0.0097811821    82.467977    719.48976 
   38800    427.40562   0.34070125    9.4493361   0.29634615 0.0033333333    4.4975355  0.010118098    84.321923    718.33531 
   38900    428.40201   0.33900291    9.4770264   0.29634615 0.0033333333    4.5467933  0.010484623    85.912656     717.1462 
   39000    429.43243   0.33991926    9.5053975   0.29634615 0.0033333333    3.9124931   0.01008151    84.690487    715.98349 
   39100    430.44685   0.34019038    9.5332719   0.29634615 0.0033333333    4.4294853 0.0098430951    84.238483    714.83056 
   39200    431.47436   0.33966942    9.5615009   0.29634615 0.0033333333    3.7864977   0.01068688    85.187801    713.65694 
   39300    432.51437   0.34044847    9.5903566   0.29634615 0.0033333333    4.3482418 0.0097909635    84.692727    712.49391 
   39400    433.51567   0.34063065    9.6178601   0.29634615 0.0033333333    4.4261864 0.0098584216    85.611005    711.31132 
   39500    434.55244   0.34085583    9.6462694   0.29634615 0.0033333333    4.0678786  0.010724083    85.971367     710.1213 
   39600    435.62215   0.34007563    9.6761542   0.29634615 0.0033333333    4.5004148  0.010327183    84.365835    708.96517 
   39700    436.62132   0.34120565    9.7036518   0.29634615 0.0033333333    4.7582001  0.010243391     84.75617    707.80061 
   39800    437.63815   0.34113438    9.7318745   0.29634615 0.0033333333    3.9715159   0.01078623    85.055508    706.62969 
   39900    438.72034   0.34057604    9.7621384   0.29634615 0.0033333333    4.0918162  0.010315199    83.899303    705.48316 
   40000    439.72129   0.33996697    9.7904354   0.29634615 0.0033333333    4.1207445  0.010391623    84.173093    704.33058 
   40100    440.74611   0.33996233    9.8188913   0.29634615 0.0033333333    4.4328491   0.01056109    84.077069    703.17985 
   40200    441.73806   0.34044029    9.8462146   0.29634615 0.0033333333    4.4075225  0.010217496    85.859087     701.9922 
   40300    442.79978   0.33997179    9.8765533   0.29634615 0.0033333333    4.1430071  0.010747672    84.087958    700.84101 
   40400    443.83727   0.34004284    9.9049899   0.29634615 0.0033333333    4.7834417  0.010101348    84.517493    699.68072 
   40500    444.86682   0.33982271    9.9329178   0.29634615 0.0033333333    4.0515496  0.010581659    85.392576     698.5025 
   40600    445.90849   0.34120967    9.9605291   0.29634615 0.0033333333    4.1466323  0.010238786    85.892055    697.31435 
   40700    446.94322   0.34168114      9.98815   0.29634615 0.0033333333    3.8383395  0.010767493    84.740947    696.14936 
   40800    447.96064   0.34079415    10.015504   0.29634615 0.0033333333    4.1656916  0.010484004     86.33291    694.95273 
   40900     448.9651   0.34056231    10.043481   0.29634615 0.0033333333    3.9826666   0.01004324    84.500126    693.79258 
   41000     449.9846   0.34039528    10.071165   0.29634615 0.0033333333    4.4269872  0.010660144    83.103412    692.66095 
   41100    451.01588   0.34072518    10.098888   0.29634615 0.0033333333    4.4180049 0.0095741657     86.59539    691.45942 
   41200    451.96056   0.33884405    10.124142   0.29634615 0.0033333333    3.9840862 0.0096684615    85.405843    690.28108 
   41300    453.00251   0.34025517    10.150913   0.29634615 0.0033333333    4.0078156  0.010369272    85.858068      689.094 
   41400    454.04274   0.34056736    10.177157   0.29634615 0.0033333333    4.1217632  0.010308508    84.488721    687.93376 
   41500    455.09634   0.34147914    10.204972   0.29634615 0.0033333333     4.450684  0.010000968     85.13209    686.76079 
   41600     456.1004   0.34011355    10.231365   0.29634615 0.0033333333    4.6252701  0.010564684    84.822246    685.59384 
   41700    457.13995    0.3416306    10.259155   0.29634615 0.0033333333    4.5355374  0.010373436    84.368974    684.43569 
   41800    458.17128    0.3408612    10.286636   0.29634615 0.0033333333    4.0133526  0.010792159    85.326841    683.25888 
   41900    459.15438   0.34165074    10.313411   0.29634615 0.0033333333    5.0896542 0.0096075846    85.390316    682.08089 
   42000    460.14723   0.33964524    10.340336   0.29634615 0.0033333333    4.3278072   0.01068003     84.82952    680.91362 
   42100    461.16407   0.34029421    10.367787   0.29634615 0.0033333333    4.8747497 0.0090962386    85.266753    679.73798 
   42200    462.15305   0.34066703    10.394952   0.29634615 0.0033333333    4.1589274  0.010744516    86.641684    678.53687 
   42300    463.23222   0.34101094    10.425038   0.29634615 0.0033333333    4.2721249  0.010033774    85.212688    677.36237 
   42400    464.22515    0.3406989     10.45158   0.29634615 0.0033333333    4.3030638  0.010209109     85.84951    676.17606 
   42500    465.24955   0.34029022    10.480691   0.29634615 0.0033333333    4.5160213  0.010407304    85.546503    674.99543 
   42600     466.2948   0.33985991    10.510223   0.29634615 0.0033333333     4.259667  0.011155966    85.751817    673.81108 
   42700    467.31477   0.34114292     10.53772   0.29634615 0.0033333333    3.9209854  0.010181535    85.630878    672.62903 
   42800    468.35585   0.34131666    10.566039   0.29634615 0.0033333333    4.0965181 0.0095899381    85.854676    671.44298 
   42900    469.38839   0.34110089    10.594002   0.29634615 0.0033333333    4.1992218  0.010108519    85.793756    670.25813 
   43000     470.4211   0.33950687    10.622808   0.29634615 0.0033333333    4.0523132  0.011309357    84.760846    669.09219 
   43100    471.47134   0.34081972    10.651462   0.29634615 0.0033333333    4.3961124  0.010437202    85.667554    667.90971 
   43200    472.47293      0.33988    10.679578   0.29634615 0.0033333333    4.3776032  0.010029947    85.933391    666.72255 
   43300    473.50176   0.34144031    10.707281   0.29634615 0.0033333333    4.3580181  0.010012776    85.835068    665.53724 
   43400    474.51481   0.34125212    10.735802   0.29634615 0.0033333333    4.3629001 0.0091624829    85.690534    664.35459 
   43500    475.51964   0.34120647    10.762814   0.29634615 0.0033333333    4.9127656 0.0092915729    86.183278    663.16334 
   43600    476.51748   0.34220013    10.789941   0.29634615 0.0033333333    4.1909703  0.010172341      85.2374     661.9889 
   43700    477.53763   0.34166441      10.8171   0.29634615 0.0033333333    3.8804646  0.009849689    85.173425    660.81559 
   43800    478.56303   0.34211416    10.844061   0.29634615 0.0033333333    4.6780652 0.0098026306    85.890225    659.62971 
   43900    479.57979   0.34076732     10.87088   0.29634615 0.0033333333    3.8829363   0.01081824    85.497416    658.45076 
   44000    480.64462   0.33992211    10.898875   0.29634615 0.0033333333    3.8064255  0.011113436     84.47943    657.28979 
   44100    481.68496   0.33986794    10.926237   0.29634615 0.0033333333    4.7346508  0.010124744    84.264664    656.13255 
   44200    482.71302   0.34082232     10.95312   0.29634615 0.0033333333    4.0085986  0.010310654    84.707283    654.96734 
   44300    483.74669   0.34078672    10.979797   0.29634615 0.0033333333    4.4039314 0.0096816193    85.036919    653.79631 
   44400    484.79637   0.34012458    11.007462   0.29634615 0.0033333333    3.8315034   0.01054352    86.191071    652.60553 
   44500    485.84652   0.34214052    11.034955   0.29634615 0.0033333333    4.2333422  0.010341925      85.9732    651.41856 
   44600    486.91398   0.34095394    11.063129   0.29634615 0.0033333333    3.8869547  0.010976786    86.156776    650.22862 
   44700    487.93839   0.34002706    11.089265   0.29634615 0.0033333333    4.4876596  0.010004653    86.229345    649.03761 
   44800    488.94779   0.34087914    11.115626   0.29634615 0.0033333333    4.1424443  0.010403883    85.369599    647.86112 
   44900    489.95011   0.34002123    11.141481   0.29634615 0.0033333333    4.2011293 0.0097300287    86.334989    646.66858 
   45000    490.99363   0.34056261    11.168985   0.29634615 0.0033333333     4.508188 0.0096398284    84.372318    645.50913 
   45100    492.05291   0.34059905    11.196541   0.29634615 0.0033333333    4.2746275  0.011162609    85.968248    644.32277 
   45200    493.12391   0.34082466    11.224424   0.29634615 0.0033333333    3.8906105 0.0099930109    84.743823     643.1569 
   45300    494.16822   0.34040326    11.251189   0.29634615 0.0033333333     3.875382  0.010914968    85.065841    641.98557 
   45400    495.20953   0.34007605    11.277906   0.29634615 0.0033333333    4.7998702  0.010137045    85.471108    640.80752 
   45500    496.22236   0.33983412    11.304105   0.29634615 0.0033333333    4.3543174 0.0097061417    85.996133    639.62094 
   45600    497.23846   0.34048995    11.330425   0.29634615 0.0033333333    4.0224723  0.010093494     85.85733    638.43672 
   45700    498.26623   0.34023893    11.356511   0.29634615 0.0033333333    3.9075689  0.010118078    85.153055    637.26402 
   45800    499.30363   0.34140118    11.383626   0.29634615 0.0033333333    4.5117303 0.0094208137    84.690419    636.09891 
   45900    500.23946   0.33996571    11.407985   0.29634615 0.0033333333    4.0946071  0.010686705    86.026029    634.91213 
   46000    501.25393    0.3389031    11.433424   0.29634615 0.0033333333    4.1432566 0.0098437045    85.343022    633.73637 
   46100    502.27465   0.33991024    11.458243   0.29634615 0.0033333333    4.0173619  0.010602132     84.41567    632.57568 
   46200    503.32848   0.34122248    11.484271   0.29634615 0.0033333333     4.295583   0.01003657    84.261329    631.41741 
   46300     504.3598   0.34084093    11.510584   0.29634615 0.0033333333    4.4730381  0.010819215    85.955704    630.23188 
   46400    505.40578   0.34140501    11.536947   0.29634615 0.0033333333    4.0043826 0.0095557102    85.513644     629.0534 
   46500    506.43222   0.34133425    11.562747   0.29634615 0.0033333333    4.7866109  0.010360748     85.20232    627.87987 
   46600    507.48325   0.34063006    11.590008   0.29634615 0.0033333333    3.8642268  0.010102931    84.145062    626.72325 
   46700      508.528   0.34039341    11.615706   0.29634615 0.0033333333    4.0907538  0.010918774    85.257013    625.54879 
   46800    509.55654    0.3409262    11.641635   0.29634615 0.0033333333    3.8333788  0.010958116    84.732473     624.3826 
   46900    510.62422   0.33881125    11.668772   0.29634615 0.0033333333    4.4486188  0.010169589    83.957914    623.22867 
   47000    511.64152   0.33874643     11.69409   0.29634615 0.0033333333    4.0762754  0.010468682    84.692283    622.06294 
   47100    512.70375   0.34055252    11.720873   0.29634615 0.0033333333    4.1377743  0.010715902    84.723727    620.89665 
   47200    513.74117   0.33940151    11.747364   0.29634615 0.0033333333    4.1700585 0.0091748986    84.813893     619.7289 
   47300     514.7967   0.33950834    11.773626   0.29634615 0.0033333333    4.0579304  0.010988332    85.409791    618.55194 
   47400    515.86126   0.33975926    11.799674   0.29634615 0.0033333333    4.9804009 0.0099278153    84.763946     617.3849 
   47500    516.89362   0.33975748    11.825668   0.29634615 0.0033333333    4.1122353  0.009607279    84.722289    616.21845 
   47600    517.91647   0.34041893    11.851217   0.29634615 0.0033333333    4.1111797 0.0099392054    85.559434    615.03923 
   47700    518.92875   0.34013935    11.876276   0.29634615 0.0033333333    3.6107989  0.011000923    85.359192    613.86305 
   47800    519.98785   0.34060503    11.902345   0.29634615 0.0033333333    3.9553673  0.010994426    83.965663    612.70813 
   47900    521.02605   0.33914217    11.927738   0.29634615 0.0033333333    3.8280587  0.010680807    85.820561    611.52507 
   48000    522.06957   0.33968022    11.953443   0.29634615 0.0033333333    4.1335478  0.011123847    82.918668    610.38625 
   48100    523.06701   0.33980087    11.978193   0.29634615 0.0033333333    4.2355454  0.010114309    84.826706    609.21788 
   48200     524.0968   0.33921836    12.003781   0.29634615 0.0033333333    4.0426092  0.010147631    84.816431    608.04963 
   48300     525.0972   0.33996835    12.028005   0.29634615 0.0033333333    3.9099345  0.010743422    84.675219    606.88343 
   48400    526.12505   0.33988582    12.052324   0.29634615 0.0033333333    5.1241296 0.0095906017     85.43453    605.70598 
   48500     527.1274   0.33957786    12.076758   0.29634615 0.0033333333    4.2078105  0.010485096    85.884826    604.52205 
   48600    528.18223    0.3391412     12.10221   0.29634615 0.0033333333    4.2951929  0.011309038    84.318313    603.36107 
   48700    529.25135   0.34004122    12.127655   0.29634615 0.0033333333    3.8890437  0.010553898    86.224364    602.17238 
   48800    530.29304   0.33954312    12.153403   0.29634615 0.0033333333      3.85729 0.0097877831    84.629141    601.00673 
   48900    531.30084   0.34013875    12.177932   0.29634615 0.0033333333    4.8324752   0.00993515    85.540048    599.82788 
   49000    532.31213     0.340346    12.202263   0.29634615 0.0033333333    4.6576926  0.010032701    84.708652    598.66101 
   49100     533.3068   0.33901304    12.226291   0.29634615 0.0033333333    4.5321201  0.010635435    84.211101    597.50131 
   49200    534.35506   0.33897571    12.252125   0.29634615 0.0033333333    4.5003665  0.010364236    84.569384     596.3363 
   49300    535.35122   0.34113806    12.276111   0.29634615 0.0033333333    4.1907574  0.010646512    84.202581    595.17652 
   49400    536.36161   0.34089709    12.300262   0.29634615 0.0033333333    3.8583243  0.010691612    86.306156    593.98698 
   49500    537.38084   0.33980016    12.325765   0.29634615 0.0033333333    4.4326965  0.010182226    82.693491    592.84921 
   49600    538.45451   0.33959634     12.35101   0.29634615 0.0033333333    4.3859818  0.010341781    82.003701    591.72148 
   49700    539.46252   0.34133194    12.374461   0.29634615 0.0033333333    4.3153012  0.010573362    83.133258    590.57662 
   49800    540.48785   0.33912713    12.398205   0.29634615 0.0033333333    4.3539184   0.01086894    85.662497    589.39572 
   49900     541.5166   0.33963212    12.422263   0.29634615 0.0033333333    4.4690304  0.010179968    86.295058    588.20628 
   50000    542.52771    0.3402813    12.445736   0.29634615 0.0033333333    3.9671169  0.011129191    84.624274    587.03985 
   50100    543.51772   0.33982425    12.469159   0.29634615 0.0033333333    4.3666797 0.0095810836    84.324788    585.87753 
   50200    544.49979   0.34057968    12.492106   0.29634615 0.0033333333    3.9142388  0.010857833    84.272757    584.71585 
   50300    545.54148   0.34145565    12.516285   0.29634615 0.0033333333    4.2769694  0.010472579    85.164657    583.54179 
   50400    546.56875   0.34082378    12.540171   0.29634615 0.0033333333    4.0796849  0.010600687    84.662964    582.37457 
   50500    547.57206   0.33971719    12.563954   0.29634615 0.0033333333    5.2746189 0.0093204161    84.311838    581.21212 
   50600    548.53029   0.34159068     12.58726   0.29634615 0.0033333333    4.6571139 0.0089954256    85.575704    580.03248 
   50700    549.54086   0.34140164    12.612138   0.29634615 0.0033333333    4.1482085 0.0098189058    85.077574    578.85954 
   50800    550.54748   0.34085789    12.635866   0.29634615 0.0033333333    4.0737681  0.010021341    85.663442    577.67879 
   50900    551.57303   0.34035607    12.660312   0.29634615 0.0033333333    3.7799319  0.010627536    85.219527    576.50397 
   51000    552.56778   0.34121911    12.683605   0.29634615 0.0033333333    4.1029356  0.010044626     83.53109    575.35194 
   51100    553.56151   0.33953765     12.70667   0.29634615 0.0033333333    3.9199729  0.010729547    85.027799    574.17957 
   51200     554.5884   0.33939204    12.730951   0.29634615 0.0033333333    5.0436848 0.0096748601    84.986606    573.00773 
   51300    555.61416     0.340493    12.754944   0.29634615 0.0033333333    4.0681655 0.0099565047    85.128842      571.834 
   51400    556.65645   0.33996054    12.779676   0.29634615 0.0033333333    4.5465207  0.010003421    85.034315    570.66151 
   51500    557.66865   0.33970242    12.804047   0.29634615 0.0033333333    4.0840751  0.010599064    85.994652    569.47663 
   51600    558.62944    0.3404533    12.827707   0.29634615 0.0033333333     5.388523 0.0092345275    85.203687    568.30196 
   51700    559.62713   0.34026062     12.85222   0.29634615 0.0033333333    4.5967103  0.010551768    85.756235    567.12023 
   51800    560.68281   0.34026247    12.877778   0.29634615 0.0033333333     4.129478  0.010603907     84.55958    565.95392 
   51900    561.68774   0.34033477    12.902609   0.29634615 0.0033333333    4.5484217 0.0086345556    83.265271    564.80458 
   52000    562.65407   0.34078067    12.926269   0.29634615 0.0033333333    3.7826434 0.0098771379    84.556086    563.63812 
   52100    563.65725   0.33928001    12.951151   0.29634615 0.0033333333    4.2065176  0.010687749     84.66669    562.47018 
   52200    564.72906   0.33860656    12.977742   0.29634615 0.0033333333    4.5542374 0.0097768884    85.400087     561.2929 
   52300    565.77482   0.34000309    13.004429   0.29634615 0.0033333333    4.5231915    0.0109098    85.053404       560.12 
   52400    566.81506   0.34089473     13.03002   0.29634615 0.0033333333     4.051047  0.010084088    84.659376    558.95205 
   52500    567.83938   0.34038198     13.05614   0.29634615 0.0033333333    4.4478371  0.010223979    85.210161    557.77715 
   52600    568.88182   0.34055183    13.082242   0.29634615 0.0033333333    4.3365385  0.010665735    85.429483    556.59954 
   52700    569.92094   0.34056894    13.107863   0.29634615 0.0033333333     4.162258 0.0098796297    84.789821    555.42988 
   52800    570.93976   0.34148314    13.132678   0.29634615 0.0033333333    4.2652795 0.0095023144    84.167215    554.26798 
[...]
   85300    902.36835   0.34091793    21.769641   0.29634615 0.0033333333    4.8853767 0.0096555212     85.34462    173.00469 
   85400    903.35451   0.34067708    21.796201   0.29634615 0.0033333333    3.7378622  0.010579688    85.208205    171.82722 
   85500    904.33719   0.34020008    21.821953   0.29634615 0.0033333333    4.2007952  0.010997495    85.772053    170.64845 
   85600    905.35791   0.34007796    21.848928   0.29634615 0.0033333333    4.4349379  0.010264512    85.000608     169.4715 
   85700    906.37029   0.34089858    21.875311   0.29634615 0.0033333333    4.8979751 0.0090077354    84.252325    168.29629 
   85800    907.36858   0.34171437    21.901605   0.29634615 0.0033333333    4.1106225   0.01002906    85.704051    167.11772 
   85900    908.40427   0.34219942    21.928764   0.29634615 0.0033333333    4.6904323 0.0098156439    85.070758     165.9406 
   86000    909.42578   0.34185277    21.955693   0.29634615 0.0033333333    4.4085548  0.010341496    84.645759    164.76445 
   86100    910.43438   0.34146339    21.982254   0.29634615 0.0033333333    3.9245132   0.01036742    83.773154    163.59028 
   86200    911.45389   0.34135631    22.009691   0.29634615 0.0033333333    4.3022053  0.010738116     84.46417     162.4145 
   86300    912.48324   0.34072955      22.0367   0.29634615 0.0033333333    4.4054772  0.010232846    85.053093    161.23739 
   86400    913.53388   0.34189802    22.064079   0.29634615 0.0033333333    4.3531209  0.010800242    85.244745    160.05987 
   86500    914.56554   0.34188226    22.090517   0.29634615 0.0033333333    4.2938984  0.010627365    85.427952    158.88198 
   86600    915.62585   0.34208911    22.117759   0.29634615 0.0033333333    4.6728676  0.010139298    85.143704     157.7047 
   86700    916.64358   0.34157041    22.143671   0.29634615 0.0033333333     4.492513 0.0097018542    83.746057    156.53043 
   86800    917.66425   0.34241693    22.169955   0.29634615 0.0033333333    4.2176417 0.0091329456    85.471108    155.35246 
   86900    918.71022   0.34059496     22.19716   0.29634615 0.0033333333     4.002314 0.0097394333    86.711702    154.17198 
   87000    919.72275   0.34074145    22.222981   0.29634615 0.0033333333    4.3074237 0.0084842668    84.109239    152.99689 
   87100    920.70611   0.34062011    22.247866   0.29634615 0.0033333333    3.9487087 0.0092599062    84.955414    151.82002 
   87200    921.73328   0.34119127    22.274101   0.29634615 0.0033333333    4.2292103  0.010535211     85.28064    150.64249 
   87300    922.77265   0.34104871    22.301374   0.29634615 0.0033333333    4.2782319  0.010805584    85.485793    149.46456 
   87400    923.80754   0.34221031    22.328075   0.29634615 0.0033333333     4.458545 0.0095112384    84.110521    148.28941 
   87500    924.82922   0.34232308    22.354492   0.29634615 0.0033333333    5.0049808 0.0095412103    85.180759    147.11209 
   87600    925.82306     0.342602    22.378838   0.29634615 0.0033333333    4.8007226 0.0095853938    85.850318    145.93348 
   87700    926.80968   0.34272537     22.40293   0.29634615 0.0033333333    3.8650583 0.0095194062    85.053335    144.75644 
   87800    927.85118   0.34132793    22.428713   0.29634615 0.0033333333    4.1349515  0.010520203    84.690778     143.5801 
   87900    928.86965   0.34093742    22.454615   0.29634615 0.0033333333    3.9304579 0.0091190023    84.769977    142.40359 
   88000    929.81457   0.34097564    22.479562   0.29634615 0.0033333333    4.4644429  0.010492233    84.001145    141.22856 
   88100    930.84346    0.3408242    22.507065   0.29634615 0.0033333333    4.1068369 0.0085755348    85.257307    140.05111 
   88200     931.8724   0.34004148    22.533876   0.29634615 0.0033333333    4.7330119  0.010006253    84.099693    138.87584 
   88300     932.8897   0.34081846    22.559153   0.29634615 0.0033333333     4.453533 0.0090157199    85.277953    137.69836 
   88400    933.87308   0.34132104     22.58293   0.29634615 0.0033333333    4.2483455  0.010105255    85.850547    136.51986 
   88500    934.92203   0.34152071    22.608639   0.29634615 0.0033333333    4.7324155  0.010450814    84.536487    135.34375 
   88600    935.91676   0.34146965    22.633392   0.29634615 0.0033333333    4.1371249 0.0093511366    84.895779    134.16698 
   88700    936.87722   0.34093707    22.656811   0.29634615 0.0033333333    4.1198121  0.010225107    84.623489    132.99069 
   88800    937.88199   0.34115405    22.680485   0.29634615 0.0033333333    4.2175329  0.010546014    86.167963    131.81171 
   88900    938.89708   0.34087771    22.705746   0.29634615 0.0033333333    4.1625859  0.010943779     83.95657     130.6366 
   89000    939.91807   0.34232556     22.73141   0.29634615 0.0033333333    4.5711627 0.0092935281    82.633977     129.4638 
   89100    940.90277   0.34151406    22.756735   0.29634615 0.0033333333    4.8685987  0.009141399    85.761828    128.28552 
   89200    941.89832   0.34165593    22.781923   0.29634615 0.0033333333    4.4758892   0.01070599    86.219897    127.10652 
   89300    942.91754   0.34089763    22.808019   0.29634615 0.0033333333    4.8927507 0.0098612981    85.668289    125.92845 
   89400    943.93639   0.34140189    22.833644   0.29634615 0.0033333333    4.1915212  0.010353832    84.682827    124.75202 
   89500    944.97635   0.33957529    22.859679   0.29634615 0.0033333333    4.6543184 0.0093181386    81.960564    123.58018 
   89600    946.00135   0.34069922     22.88511   0.29634615 0.0033333333    4.0006526  0.010292628     80.89129    122.41011 
   89700     947.0375   0.34150553    22.911861   0.29634615 0.0033333333    3.8272121  0.010451892    86.353333    121.23091 
   89800    948.06854   0.34137988    22.938101   0.29634615 0.0033333333    4.3327361  0.010883343    85.900903    120.05245 
   89900    949.10857   0.34081711    22.963584   0.29634615 0.0033333333    4.3305951  0.010258109     86.03187    118.87382 
   90000     950.0929   0.34032032    22.987915   0.29634615 0.0033333333    4.8659276 0.0097467985    84.476809    117.69761 
   90100    951.07422   0.34102814    23.012576   0.29634615 0.0033333333    4.5131153  0.010432802    85.610428    116.51965 
   90200    952.05496   0.34120833    23.037755   0.29634615 0.0033333333    4.2400916 0.0093802637    83.307642    115.34523 
   90300    953.01013   0.34107385    23.060758   0.29634615 0.0033333333    3.9180874 0.0095566542    81.526032    114.17357 
   90400    954.01906   0.34056836    23.085554   0.29634615 0.0033333333    4.0728403  0.010579304    81.733131    113.00145 
   90500    955.07269    0.3418131     23.11168   0.29634615 0.0033333333    4.2405096  0.010346608    81.958018    111.82887 
   90600    956.07898    0.3407769      23.1359   0.29634615 0.0033333333    4.1242662  0.010954206    82.449059    110.65543 
   90700    957.10781    0.3415497    23.161411   0.29634615 0.0033333333    3.8498304  0.010907368    82.772753    109.48142 
   90800    958.09544   0.34203672    23.185713   0.29634615 0.0033333333     4.452228  0.010563323    85.833452    108.30297 
   90900    959.13829   0.34203045    23.211729   0.29634615 0.0033333333    4.2323351 0.0087089223    85.141958    107.12549 
   91000    960.04968   0.34113283    23.234028   0.29634615 0.0033333333     4.059136  0.010725048    85.464472    105.94758 
   91100    961.10329   0.34157095    23.259508   0.29634615 0.0033333333    4.6771673  0.009271061     79.21275    104.77871 
   91200    962.10318   0.34182731    23.283783   0.29634615 0.0033333333    3.9111966 0.0097610631     85.81201    103.60027 
   91300    963.07882   0.34139939    23.307341   0.29634615 0.0033333333    4.6391104 0.0093426678    84.938106      102.423 
   91400    964.08084   0.33988936    23.331783   0.29634615 0.0033333333    4.3124077  0.010227345    86.892887    101.24324 
   91500    965.09819   0.34046652    23.356806   0.29634615 0.0033333333    4.0822236  0.010630207    85.571095    100.06519 
   91600    966.12875   0.34041954    23.381955   0.29634615 0.0033333333    4.8908507 0.0099126211    86.067336    98.886542 
   91700    967.14409   0.34163231    23.406295   0.29634615 0.0033333333    4.3951103  0.010398155    86.656237    97.707218 
   91800    968.17072   0.34040149    23.431381   0.29634615 0.0033333333     4.045786  0.010797128    85.835806    96.528935 
   91900    969.22059   0.33979736    23.456741   0.29634615 0.0033333333    4.5184972 0.0099374685    82.225068    95.355189 
   92000    970.23601   0.34001196    23.480327   0.29634615 0.0033333333    4.1075493  0.010749287    84.066049    94.179036 
   92100    971.25588   0.34087594    23.504591   0.29634615 0.0033333333    4.3127194  0.010678132    85.960725    93.000604 
   92200    972.27024   0.34048741    23.529092   0.29634615 0.0033333333    4.3583068  0.010074079    84.588332    91.823802 
   92300     973.2936   0.34176992     23.55388   0.29634615 0.0033333333    4.1074723  0.010018616    85.880711    90.645504 
   92400     974.2973   0.34135561    23.578262   0.29634615 0.0033333333    4.1239287  0.011049425    85.600958    89.467549 
   92500    975.35551   0.34082852    23.603696   0.29634615 0.0033333333    5.2482725 0.0090424877    84.602084    88.290734 
   92600    976.37625   0.34031081    23.628711   0.29634615 0.0033333333     4.514842  0.010461801    85.385153    87.113041 
   92700    977.40894   0.34077097     23.65422   0.29634615 0.0033333333    4.8129427  0.010253216    84.802815    85.935995 
   92800    978.41177   0.34007598    23.679267   0.29634615 0.0033333333    4.2456443  0.010145408    83.070346    84.760853 
   92900    979.46977   0.34046813    23.705576   0.29634615 0.0033333333    4.6862443 0.0098764708    84.957358    83.583606 
   93000    980.46153   0.33976966    23.730079   0.29634615 0.0033333333    4.4642354  0.010718359    84.114417    82.407247 
   93100    981.45603   0.34043746    23.755093   0.29634615 0.0033333333    4.8264667  0.009916582    84.992375    81.229951 
   93200    982.43195   0.34107968    23.779414   0.29634615 0.0033333333     4.364422   0.01012069    85.392871    80.052254 
   93300    983.44335   0.34035723    23.804771   0.29634615 0.0033333333    4.2924845 0.0099952124     85.83087    78.874142 
   93400    984.38373   0.34026614    23.827701   0.29634615 0.0033333333    4.1344774 0.0097800908    85.226142    77.696642 
   93500    985.35539   0.33989473    23.851411   0.29634615 0.0033333333    4.0668221 0.0096600086    83.129732    76.521208 
   93600    986.31631   0.33927752    23.875832   0.29634615 0.0033333333    3.9850094  0.010213484    85.683112    75.343264 
   93700     987.3475   0.33990045    23.901279   0.29634615 0.0033333333    5.0080727 0.0098874337     86.06882    74.164991 
   93800    988.36837   0.34118437    23.925811   0.29634615 0.0033333333    4.6563101 0.0096854131    85.969587    72.986843 
   93900     989.3551   0.34141107    23.950887   0.29634615 0.0033333333    4.0887486  0.010356619    86.845587    71.807963 
   94000    990.30719   0.33992317    23.974842   0.29634615 0.0033333333    4.6162331 0.0097200519    86.178603    70.629711 
   94100    991.30703    0.3405158    23.999879   0.29634615 0.0033333333    3.9493243  0.010428574    85.719623    69.451887 
   94200     992.3402    0.3408567    24.024496   0.29634615 0.0033333333    5.1155403 0.0095467498    85.607493     68.27418 
   94300    993.35287   0.34031771    24.049389   0.29634615 0.0033333333    4.1753437  0.010330457    84.882069    67.097098 
   94400    994.36459   0.34054914    24.074063   0.29634615 0.0033333333    4.1366767  0.009897482    85.554617    65.919463 
   94500    995.39116   0.33969744    24.098409   0.29634615 0.0033333333    4.3238169 0.0099121427    80.242462    64.746351 
   94600    996.35899   0.33900398    24.122595   0.29634615 0.0033333333    4.5360611  0.009923593     85.76139    63.568507 
   94700    997.38297   0.34131216     24.14637   0.29634615 0.0033333333    3.9380499  0.010973959    85.968706     62.39053 
   94800     998.3725   0.34120907    24.169734   0.29634615 0.0033333333     4.828694 0.0098180812    85.755481    61.212742 
   94900    999.38612   0.34139031    24.194045   0.29634615 0.0033333333    4.2392272  0.010121438    85.879005     60.03489 
   95000    1000.4064   0.33990093    24.219226   0.29634615 0.0033333333    4.2676703  0.010618224    84.946622    58.857738 
   95100    1001.3579   0.34081306    24.242729   0.29634615 0.0033333333    4.2092034 0.0097485774     84.64031    57.680805 
   95200     1002.391   0.34057605    24.268604   0.29634615 0.0033333333    4.3341456  0.010483547    85.458552    56.503293 
   95300    1003.4513   0.34056558    24.294729   0.29634615 0.0033333333    3.8229886  0.010406021    82.536103     55.32784 
   95400    1004.5045   0.34085324    24.320935   0.29634615 0.0033333333    3.7477464  0.010204555     86.13657    54.149868 
   95500    1005.5261   0.33924776    24.346466   0.29634615 0.0033333333    3.9804154 0.0097217759     85.31398     52.97246 
   95600    1006.4938   0.34064577    24.370341   0.29634615 0.0033333333    3.8988826  0.010022485    85.226557    51.795119 
   95700    1007.5388   0.34088771    24.396407   0.29634615 0.0033333333    4.2331274  0.010711865    86.196278    50.617192 
   95800     1008.543   0.34142568    24.421614   0.29634615 0.0033333333    4.0649453  0.010721131     85.39607    49.439779 
   95900    1009.5381   0.34177844     24.44626   0.29634615 0.0033333333    4.1095701  0.010345436    85.601133     48.26226 
   96000    1010.5707   0.34043719    24.470994   0.29634615 0.0033333333    4.2864787  0.010237914    84.974605    47.085119 
   96100    1011.6105   0.34036344    24.495427   0.29634615 0.0033333333    4.1177777 0.0097474626    84.019082    45.908522 
   96200    1012.6025   0.34081738    24.519148   0.29634615 0.0033333333    4.7869207 0.0095382014    79.937259    44.734297 
   96300    1013.6261   0.34004051     24.54347   0.29634615 0.0033333333    4.0663179   0.01045957    85.635353    43.556714 
   96400    1014.6641   0.33885724    24.567497   0.29634615 0.0033333333    4.1231797 0.0094131976    86.034534     42.37895 
   96500    1015.6715   0.34164254    24.590521   0.29634615 0.0033333333    4.2075968  0.010246869    85.615181    41.201424 
   96600    1016.6908   0.34079191    24.615064   0.29634615 0.0033333333    4.2154187 0.0099817375    85.684372    40.023885 
   96700    1017.7184   0.34197705    24.639526   0.29634615 0.0033333333    4.3785528  0.010236902     85.62011    38.846397 
   96800    1018.7204   0.34085916    24.663389   0.29634615 0.0033333333    3.8412862  0.010359916    85.529879     37.66897 
   96900    1019.6848   0.34130623    24.686109   0.29634615 0.0033333333    4.6507362 0.0089740864    85.829465    36.491429 
   97000    1020.6835   0.34204815    24.709749   0.29634615 0.0033333333    3.8719685  0.010955603     81.34646    35.315899 
   97100    1021.7277   0.34148038    24.733653   0.29634615 0.0033333333    4.5584403  0.010338875    84.046525     34.13908 
   97200    1022.7379   0.34194371    24.756197   0.29634615 0.0033333333    4.1894957  0.010709808    85.631769    32.961599 
   97300    1023.7179   0.34192459    24.779107   0.29634615 0.0033333333    4.1911692 0.0097451615     84.65536    31.784511 
   97400    1024.7298   0.34050472    24.802044   0.29634615 0.0033333333    4.2785092 0.0090632403    84.527151    30.607463 
   97500    1025.7296   0.34036997     24.82569   0.29634615 0.0033333333    4.2499093  0.010710693    85.926226    29.429909 
   97600    1026.7992   0.34035772    24.850284   0.29634615 0.0033333333    4.0494125  0.010484945    84.944867    28.252714 
   97700     1027.862     0.341097    24.876369   0.29634615 0.0033333333    4.0778368  0.010126954    83.931705    27.075853 
   97800    1028.8828   0.34080372    24.900141   0.29634615 0.0033333333    4.0961884  0.011288551    85.858806     25.89836 
   97900    1029.8995   0.34075603    24.924241   0.29634615 0.0033333333    3.8168896 0.0099853891    84.683819    24.721241 
   98000    1030.8987   0.34099379    24.948566   0.29634615 0.0033333333    4.1390983  0.010235259    84.907311     23.54405 
   98100    1031.8521   0.34165735     24.97224   0.29634615 0.0033333333    4.0976671   0.01020466    85.669391    22.366655 
   98200    1032.8448   0.34187283    24.997078   0.29634615 0.0033333333    5.0891485 0.0093167593    85.963826    21.189208 
   98300     1033.834   0.34053724    25.021733   0.29634615 0.0033333333    4.3030065 0.0097519177    85.347607    20.011935 
   98400    1034.8207    0.3417004    25.045564   0.29634615 0.0033333333     4.548231  0.010532703    85.462853    18.834647 
   98500    1035.8438   0.34153428    25.070644   0.29634615 0.0033333333    3.7764988  0.011274921    85.292728    17.657409 
   98600    1036.8679   0.34218091    25.096465   0.29634615 0.0033333333      4.26766 0.0098209414    85.690534    16.480104 
   98700    1037.8965   0.34075778    25.121689   0.29634615 0.0033333333     4.069622 0.0098249448    85.191434     15.30291 
   98800    1038.9326    0.3395685    25.147991   0.29634615 0.0033333333    4.1855185  0.010978598    83.382102    14.126032 
   98900    1039.9507   0.34111039     25.17272   0.29634615 0.0033333333     4.021551  0.010660106    84.689273    12.948903 
   99000    1040.9317   0.33997245    25.197602   0.29634615 0.0033333333    4.1272604  0.010111334    83.538144    11.771931 
   99100    1041.9189    0.3396395    25.222102   0.29634615 0.0033333333    4.3538757  0.010139011    84.771913     10.59476 
   99200    1042.9451   0.33957856    25.248601   0.29634615 0.0033333333    3.6550029 0.0097074897    85.278403    9.4175278 
   99300    1043.9589   0.33937164    25.274383   0.29634615 0.0033333333     4.668512  0.009124267    84.947034    8.2403369 
   99400    1044.9739   0.34049434    25.300473   0.29634615 0.0033333333    4.3428684  0.010429489    84.883667    7.0631513 
   99500    1045.9671   0.34105261    25.325554   0.29634615 0.0033333333    4.3552267   0.01078337    84.217611    5.8860107 
   99600    1046.9657   0.34081494    25.351233   0.29634615 0.0033333333    4.5081688 0.0092381069    79.344992    4.7091424 
   99700    1047.9419   0.33932505    25.376562   0.29634615 0.0033333333    4.2993977  0.010156926    85.825355    3.5318203 
   99800    1048.9689   0.34106555    25.402967   0.29634615 0.0033333333    4.1017839  0.011361969    86.139171    2.3545141 
   99900    1050.0013   0.34261117    25.429818   0.29634615 0.0033333333     4.638046 0.0091746898    84.466024    1.1772637 
  100000    1051.0178   0.34171147    25.456928   0.29634615 0.0033333333    4.2659733  0.010659561    84.188975            0 
Loop time of 1177.27 on 4 procs for 100000 steps with 187057 atoms

Performance: 78230.378 tau/day, 84.942 timesteps/s
218.5% CPU use with 1 MPI tasks x 4 OpenMP threads

MPI task timing breakdown:
Section |  min time  |  avg time  |  max time  |%varavg| %total
---------------------------------------------------------------
Pair    | 386.13     | 386.13     | 386.13     |   0.0 | 32.80
Neigh   | 18.088     | 18.088     | 18.088     |   0.0 |  1.54
Comm    | 130.34     | 130.34     | 130.34     |   0.0 | 11.07
Output  | 3.4251     | 3.4251     | 3.4251     |   0.0 |  0.29
Modify  | 565.6      | 565.6      | 565.6      |   0.0 | 48.04
Other   |            | 73.69      |            |       |  6.26

Nlocal:    187057 ave 187057 max 187057 min
Histogram: 1 0 0 0 0 0 0 0 0 0
Nghost:    67978 ave 67978 max 67978 min
Histogram: 1 0 0 0 0 0 0 0 0 0
Neighs:    0 ave 0 max 0 min
Histogram: 1 0 0 0 0 0 0 0 0 0

Total # of neighbors = 0
Ave neighs/atom = 0
Neighbor list builds = 28358
Dangerous builds = 0

Please see the log.cite file for references relevant to this simulation

Total wall time: 0:20:28
