#package gpu 1
#suffix gpu
# variable rho equal 0.03

units lj
atom_style atomic

lattice fcc 0.975
Lattice spacing in x,y,z = 1.60085 1.60085 1.60085
region box block 0 60 0 30 0 30
create_box 2 box
Created orthogonal box = (0 0 0) to (96.0513 48.0256 48.0256)
  1 by 1 by 1 MPI processor grid
create_atoms 1 box
Created 216000 atoms
  Time spent = 0.040297 secs
mass 1 4.0
mass 2 0.5


pair_style lj/cut 2.5
pair_coeff 1 1 1.0 1.0 2.5
pair_coeff 2 2 0.5 0.88 2.5
pair_coeff 1 2 0.2 1.0 2.5
#pair_coeff 1 2 1.5 0.8 2.5
pair_modify mix geometric
neigh_modify every 1 delay 0 check yes

variable R equal 12
region cylinder1 cylinder x $(0.5*ly) $(0.5*lz) $R EDGE EDGE units box
region cylinder1 cylinder x 24.012813670346833561 $(0.5*lz) $R EDGE EDGE units box
region cylinder1 cylinder x 24.012813670346833561 24.012813670346833561 $R EDGE EDGE units box
region cylinder1 cylinder x 24.012813670346833561 24.012813670346833561 12 EDGE EDGE units box

group cylinder1 region cylinder1
41820 atoms in group cylinder1
variable V equal PI*v_R*v_R*lx
# variable rho equal 0.1
variable natoms equal $V*${rho}
variable natoms equal 43452.5639148185*${rho}
variable natoms equal 43452.5639148185*0.005
variable natoms_in_cylinder equal count(cylinder1)
variable delete_fraction equal (${natoms_in_cylinder}-${natoms})/${natoms_in_cylinder}
variable delete_fraction equal (41820-${natoms})/${natoms_in_cylinder}
variable delete_fraction equal (41820-217.262819574093)/${natoms_in_cylinder}
variable delete_fraction equal (41820-217.262819574093)/41820
set group cylinder1 type 2
  41820 settings made for type
delete_atoms porosity cylinder1 ${delete_fraction} 12345
delete_atoms porosity cylinder1 0.994804810627114 12345
Deleted 41608 atoms, new total = 174392
#delete_atoms region cylinder1

region cylinder2 cylinder x $(0.5*ly) $(0.5*lz) $(v_R+6) EDGE EDGE units box
region cylinder2 cylinder x 24.012813670346833561 $(0.5*lz) $(v_R+6) EDGE EDGE units box
region cylinder2 cylinder x 24.012813670346833561 24.012813670346833561 $(v_R+6) EDGE EDGE units box
region cylinder2 cylinder x 24.012813670346833561 24.012813670346833561 18 EDGE EDGE units box
region cylinder3 cylinder x $(0.5*ly) $(0.5*lz) $(v_R+11) EDGE EDGE units box
region cylinder3 cylinder x 24.012813670346833561 $(0.5*lz) $(v_R+11) EDGE EDGE units box
region cylinder3 cylinder x 24.012813670346833561 24.012813670346833561 $(v_R+11) EDGE EDGE units box
region cylinder3 cylinder x 24.012813670346833561 24.012813670346833561 23 EDGE EDGE units box
group cylinder2 region cylinder2
54212 atoms in group cylinder2
group cylinder3 region cylinder3
113972 atoms in group cylinder3

group nve region cylinder3
113972 atoms in group nve
group langevin subtract cylinder3 cylinder2
59760 atoms in group langevin
group frozen subtract all cylinder3
60420 atoms in group frozen

region force cylinder x $(0.5*ly) $(0.5*lz) $(v_R-1) EDGE EDGE units box
region force cylinder x 24.012813670346833561 $(0.5*lz) $(v_R-1) EDGE EDGE units box
region force cylinder x 24.012813670346833561 24.012813670346833561 $(v_R-1) EDGE EDGE units box
region force cylinder x 24.012813670346833561 24.012813670346833561 11 EDGE EDGE units box
group inner dynamic all region cylinder1 every 1
dynamic group inner defined
#group gas dynamic all region force every 1
group gas type 2
212 atoms in group gas

fix nve nve nve
fix langevin langevin langevin 0.50 0.50 1.0 12345 zero yes

variable gascount equal count(gas)

variable dP equal 0.001
variable measured_rho equal mass(gas)/(PI*(v_R-1)*(v_R-1)*lx)
variable force equal v_dP/v_measured_rho
variable force equal v_dP/v_rho

velocity all create 0.1 87287
velocity frozen set 0 0 0

compute chunk all chunk/atom bin/cylinder x lower $(lx) $(0.5*ly) $(0.5*lz) 0 $(v_R+5) 30 units box
compute chunk all chunk/atom bin/cylinder x lower 96.051254681387334244 $(0.5*ly) $(0.5*lz) 0 $(v_R+5) 30 units box
compute chunk all chunk/atom bin/cylinder x lower 96.051254681387334244 24.012813670346833561 $(0.5*lz) 0 $(v_R+5) 30 units box
compute chunk all chunk/atom bin/cylinder x lower 96.051254681387334244 24.012813670346833561 24.012813670346833561 0 $(v_R+5) 30 units box
compute chunk all chunk/atom bin/cylinder x lower 96.051254681387334244 24.012813670346833561 24.012813670346833561 0 17 30 units box

compute displacement nve displace/atom
compute mean_displacement nve reduce ave c_displacement[4]

compute vmax all reduce max vx
variable volume equal count(gas)/v_V

thermo_style custom step time temp c_mean_displacement v_volume v_force c_vmax dt spcpu cpuremain
thermo 100

compute keAtom all ke/atom
dump dump all custom 1000 trajectory_l.bin id type x y z c_keAtom

fix flow gas addforce v_force 0.0 0.0
run 5000
No /omp style for force computation currently active
Per MPI rank memory allocation (min/avg/max) = 85.7 | 85.7 | 85.7 Mbytes
Step Time Temp c_mean_displacement v_volume v_force c_vmax Dt S/CPU CPULeft 
       0            0  0.065440985            0 0.0048788836          0.2   0.77453323        0.005            0            0 
     100          0.5  0.098108413   0.05715769 0.0048788836          0.2    1.0044898        0.005    112.01583    43.743863 
     200            1   0.14549206  0.086684568 0.0048788836          0.2    1.8965776        0.005    112.28927    42.798935 
     300          1.5   0.16985837   0.11791634 0.0048788836          0.2    1.8906284        0.005    112.99295    41.803365 
     400            2    0.1875572   0.14232717 0.0048788836          0.2    1.8320226        0.005    112.49367    40.908235 
     500          2.5    0.1996647   0.16062795 0.0048788836          0.2    1.8844457        0.005    98.263182    41.174226 
     600            3   0.20741053   0.17215779 0.0048788836          0.2    1.9491338        0.005    102.58147    40.698152 
     700          3.5   0.21347056   0.17523797 0.0048788836          0.2    2.2586816        0.005    104.79302     39.95321 
     800            4   0.21829382   0.17035126 0.0048788836          0.2    2.5083644        0.005    105.23347    39.134964 
     900          4.5    0.2260138   0.15954103 0.0048788836          0.2    2.7438443        0.005    106.62949    38.230704 
    1000            5   0.23105462   0.14577009 0.0048788836          0.2     2.780962        0.005    108.45963    37.256432 
    1100          5.5   0.23655231   0.13163725 0.0048788836          0.2    3.0110309        0.005    109.03293    36.274474 
    1200            6    0.2406551   0.12032386 0.0048788836          0.2    3.2654922        0.005    107.86185     35.33485 
    1300          6.5   0.24361378   0.11305116 0.0048788836          0.2    3.4678646        0.005    105.23811    34.462938 
    1400            7   0.24597936   0.11124897 0.0048788836          0.2    3.6836094        0.005    106.56052    33.549516 
    1500          7.5   0.25043257   0.11290774 0.0048788836          0.2     3.890845        0.005    104.87367    32.667976 
    1600            8    0.2544341   0.11616128 0.0048788836          0.2    4.0931247        0.005    102.87633    31.816781 
    1700          8.5   0.25779393   0.11972448 0.0048788836          0.2    4.2934085        0.005    102.50491    30.958204 
    1800            9   0.26211126   0.12319722 0.0048788836          0.2    4.4934085        0.005      101.584     30.10235 
    1900          9.5   0.26598861   0.12554056 0.0048788836          0.2    4.6934085        0.005    101.94585    29.227267 
    2000           10   0.26996964   0.12804057 0.0048788836          0.2    4.8934085        0.005    101.54365    28.347427 
    2100         10.5   0.27293522   0.13129525 0.0048788836          0.2    5.0934085        0.005    100.76684    27.468073 
    2200           11   0.27713155   0.13524673 0.0048788836          0.2    5.3337211        0.005    101.19388    26.573115 
    2300         11.5   0.27938899   0.14096668 0.0048788836          0.2    5.4934085        0.005     100.4577     25.67855 
    2400           12   0.28266838   0.14742661 0.0048788836          0.2    5.6934085        0.005    100.83429     24.77155 
    2500         12.5   0.28562566   0.15383096 0.0048788836          0.2    5.8945185        0.005    104.28378    23.824968 
    2600           13   0.28751998   0.15935385 0.0048788836          0.2     6.236906        0.005    102.60978    22.891877 
    2700         13.5    0.2885742   0.16407229 0.0048788836          0.2    6.2950029        0.005    102.46249    21.956908 
    2800           14   0.29037734   0.16695492 0.0048788836          0.2    6.7276273        0.005     100.8646    21.031158 
    2900         14.5   0.29150466   0.16894719 0.0048788836          0.2    6.6950029        0.005    101.87429    20.093764 
    3000           15   0.29264918   0.17052802 0.0048788836          0.2    6.8950029        0.005    100.91325    19.159654 
    3100         15.5   0.29449748   0.17222565 0.0048788836          0.2    7.0950029        0.005    102.17512    18.214376 
    3200           16   0.29630988    0.1738678 0.0048788836          0.2    7.2950029        0.005    101.63676    17.269925 
    3300         16.5   0.29758073   0.17596147 0.0048788836          0.2    7.4950029        0.005    101.64772    16.323029 
    3400           17   0.29917648   0.17829441 0.0048788836          0.2    7.6950029        0.005    99.279013    15.385008 
    3500         17.5   0.30123805   0.18117578 0.0048788836          0.2    7.8950029        0.005    99.777907    14.440871 
    3600           18    0.3025764   0.18474521 0.0048788836          0.2    8.1528343        0.005    100.00789    13.492612 
    3700         18.5   0.30346782   0.18852456 0.0048788836          0.2    8.3812287        0.005    100.16437    12.541011 
    3800           19   0.30519779   0.19308448 0.0048788836          0.2    8.4954368        0.005    99.807372    11.588077 
    3900         19.5   0.30689458    0.1984264 0.0048788836          0.2    9.0212254        0.005    99.528945    10.633421 
    4000           20   0.30819196   0.20315891 0.0048788836          0.2    9.2131735        0.005    98.252663    9.6795235 
    4100         20.5   0.31073449    0.2080525 0.0048788836          0.2    9.4131735        0.005    99.369403     8.719999 
    4200           21   0.31218909   0.21337966 0.0048788836          0.2     9.612994        0.005    96.046993    7.7648756 
    4300         21.5   0.31369824   0.21852704 0.0048788836          0.2    9.8141416        0.005    95.895012    6.8060193 
    4400           22   0.31503383   0.22389642 0.0048788836          0.2    10.016115        0.005    95.087588    5.8445543 
    4500         22.5   0.31554776   0.22953501 0.0048788836          0.2      10.1571        0.005    95.244804    4.8788879 
    4600           23   0.31552099   0.23517535 0.0048788836          0.2    9.9091434        0.005    95.583754    3.9092343 
    4700         23.5   0.31858534   0.24037554 0.0048788836          0.2    10.112432        0.005    95.232023    2.9365699 
    4800           24   0.31981363   0.24578975 0.0048788836          0.2    10.338099        0.005    95.446894    1.9605818 
    4900         24.5    0.3200525   0.25120375 0.0048788836          0.2    10.755047        0.005    95.946629   0.98155533 
    5000           25   0.31975723   0.25624023 0.0048788836          0.2    10.739448        0.005      93.8118            0 
Loop time of 49.1622 on 4 procs for 5000 steps with 174392 atoms

Performance: 43936.204 tau/day, 101.704 timesteps/s
235.4% CPU use with 1 MPI tasks x 4 OpenMP threads

MPI task timing breakdown:
Section |  min time  |  avg time  |  max time  |%varavg| %total
---------------------------------------------------------------
Pair    | 15.94      | 15.94      | 15.94      |   0.0 | 32.42
Neigh   | 0.41283    | 0.41283    | 0.41283    |   0.0 |  0.84
Comm    | 4.7272     | 4.7272     | 4.7272     |   0.0 |  9.62
Output  | 0.14492    | 0.14492    | 0.14492    |   0.0 |  0.29
Modify  | 24.982     | 24.982     | 24.982     |   0.0 | 50.82
Other   |            | 2.955      |            |       |  6.01

Nlocal:    174392 ave 174392 max 174392 min
Histogram: 1 0 0 0 0 0 0 0 0 0
Nghost:    66621 ave 66621 max 66621 min
Histogram: 1 0 0 0 0 0 0 0 0 0
Neighs:    0 ave 0 max 0 min
Histogram: 1 0 0 0 0 0 0 0 0 0

Total # of neighbors = 0
Ave neighs/atom = 0
Neighbor list builds = 940
Dangerous builds = 0

reset_timestep 0
fix vx all ave/chunk 10 100000 1000000 chunk vx ave running file velocity_l.txt

fix dt all dt/reset 10 NULL NULL 0.05 units box

run 1000000
No /omp style for force computation currently active
Per MPI rank memory allocation (min/avg/max) = 95.07 | 95.07 | 95.07 Mbytes
Step Time Temp c_mean_displacement v_volume v_force c_vmax Dt S/CPU CPULeft 
       0           25   0.31975723   0.25624023 0.0048788836          0.2    10.739448 0.0043921208            0            0 
     100    25.435842   0.32086208   0.25985619 0.0048788836          0.2    10.928531  0.004320785    87.849296    11382.002 
     200    25.839681   0.32140161   0.26304546 0.0048788836          0.2    11.092764 0.0036338505    88.867249    11315.671 
     300    26.201755   0.32209676   0.26612348 0.0048788836          0.2    11.237593 0.0035919984    89.117491    11282.288 
     400    26.578288   0.32161701    0.2697025 0.0048788836          0.2    11.602331 0.0037931719    91.635852    11187.968 
     500    26.956258   0.32344302   0.27306304 0.0048788836          0.2    11.750848 0.0037595415     89.30732    11187.818 
     600    27.330536   0.32401735   0.27654169 0.0048788836          0.2    11.900559 0.0037224658    88.936254    11195.125 
     700     27.70115   0.32331313   0.28030671 0.0048788836          0.2    12.048805 0.0036863705    88.426237    11209.282 
     800    28.068198   0.32443745   0.28382806 0.0048788836          0.2    12.195624 0.0036512161    88.675516    11215.647 
     900    28.431771   0.32622425   0.28718772 0.0048788836          0.2    12.341053 0.0036169653      89.1593    11213.553 
    1000    28.791958   0.32566359   0.29092275 0.0048788836          0.2    12.485128 0.0035835826    87.776345    11229.308 
    1100    29.148845   0.32695557   0.29412851 0.0048788836          0.2     12.74102 0.0035510343    88.787806    11230.204 
    1200    29.502513   0.32688786   0.29797077 0.0048788836          0.2     12.77751 0.0035192884    89.069308    11227.802 
    1300    29.853025   0.32748534   0.30113281 0.0048788836          0.2    12.909253 0.0034858326    88.624682    11229.924 
    1400    30.212496   0.32777286   0.30459605 0.0048788836          0.2    13.047389  0.003689849    90.129862     11218.14 
    1500    30.580317   0.32788496   0.30782817 0.0048788836          0.2    13.194518 0.0036599453    89.173137    11215.703 
    1600    30.944791   0.32909173   0.31095666 0.0048788836          0.2    13.339677 0.0036263098     88.37662    11219.737 
    1700    31.305504   0.32926181   0.31434128 0.0048788836          0.2    13.483962  0.003580067    88.968136    11218.747 
    1800    31.662998   0.32875442   0.31813273 0.0048788836          0.2     13.62696 0.0035659109    88.971136     11217.72 
    1900    32.018158   0.33080361   0.32144838 0.0048788836          0.2    13.769024 0.0035343034    88.781567    11217.944 
    2000    32.370132   0.33035508   0.32499985 0.0048788836          0.2    13.909814 0.0034972026    87.272515    11227.751 
    2100    32.717688   0.33047075   0.32826888 0.0048788836          0.2    14.048712  0.003481381    89.568828    11222.556 
    2200     33.06906    0.3315342   0.33134808 0.0048788836          0.2    14.189075 0.0035069505    90.003317    11215.287 
    2300    33.418215   0.33130957   0.33453496 0.0048788836          0.2    14.328767 0.0034728111    88.548794    11216.471 
    2400    33.763997   0.33121719   0.33773796 0.0048788836          0.2    14.467726 0.0034392026    88.477645    11217.838 
    2500    34.106423   0.33321187   0.34042324 0.0048788836          0.2    14.597908 0.0034065467      88.5447    11218.665 
    2600    34.445381   0.33220171    0.3436405 0.0048788836          0.2    14.770023 0.0033625735    88.652162    11218.817 
    2700    34.780161   0.33329865   0.34674222 0.0048788836          0.2    14.607051 0.0033437532    89.390039    11215.434 
    2800    35.114015   0.33159844   0.34978563 0.0048788836          0.2    14.731961 0.0033515612    89.929273    11209.824 
    2900    35.448994    0.3339582   0.35230094 0.0048788836          0.2    14.849014 0.0033400142    88.976515    11208.618 
    3000    35.781527   0.33322518   0.35530312 0.0048788836          0.2    14.982028 0.0031654909    87.063569    11215.624 
    3100    36.087133   0.33416863   0.35765267 0.0048788836          0.2     15.10427 0.0029558978    86.074295    11226.349 
    3200    36.381931   0.33404193   0.36004237 0.0048788836          0.2    14.811432 0.0029382401    86.412274    11234.916 
    3300     36.67493   0.33415485   0.36242234 0.0048788836          0.2    14.914609 0.0029203308    86.330067    11243.226 
    3400    36.966196   0.33293851   0.36474888 0.0048788836          0.2    14.887102 0.0029033495    87.723693    11245.586 
    3500    37.255757   0.33286538   0.36701924 0.0048788836          0.2    15.003488 0.0028864397    88.589098    11244.575 
    3600    37.543658   0.33448441   0.36899839 0.0048788836          0.2    15.118048 0.0028699802    87.915493    11245.951 
    3700    37.829924   0.33447333   0.37108332 0.0048788836          0.2    15.232554 0.0028537681    88.064605    11246.673 
    3800    38.116264   0.33303347   0.37327255 0.0048788836          0.2     15.81455 0.0028641708    89.122982    11243.761 
    3900    38.405489   0.33422499   0.37531995 0.0048788836          0.2     15.46278 0.0028932451    89.455279    11239.877 
    4000    38.694075    0.3333045   0.37760481 0.0048788836          0.2    15.578215 0.0028768714    88.339299    11239.648 
    4100    38.981034   0.33402475   0.37991957 0.0048788836          0.2    15.699852 0.0028607388    88.594674    11238.582 
    4200    39.266391   0.33435963   0.38234936 0.0048788836          0.2    15.853341 0.0028448422    88.168884    11238.805 
    4300    39.550168   0.33408354   0.38442413 0.0048788836          0.2     15.96279 0.0028291764    87.953305    11239.609 
    4400    39.832389   0.33350954   0.38653983 0.0048788836          0.2    16.075678 0.0028137365    88.837867    11237.764 
    4500    40.113071    0.3345388   0.38821802 0.0048788836          0.2    16.187951 0.0027974537    88.771946    11236.134 
    4600    40.407799    0.3342601   0.39024107 0.0048788836          0.2    16.308405 0.0030640998    89.331096    11233.002 
    4700    40.713634    0.3354683   0.39230597 0.0048788836          0.2    16.382475 0.0030512114    88.071354    11233.345 
    4800     41.01774   0.33478339   0.39449163 0.0048788836          0.2    16.504117 0.0030287348    88.606615    11232.205 
    4900     41.31962   0.33486455   0.39672935 0.0048788836          0.2    16.624869 0.0030067477    88.506771    11231.324 
    5000    41.619323   0.33497443   0.39875197 0.0048788836          0.2     16.74475 0.0029852327    87.373179     11233.35 
    5100    41.916895   0.33479125   0.40061925 0.0048788836          0.2    16.863779  0.002964173    88.564631    11232.249 
    5200     42.21238   0.33450749   0.40235915 0.0048788836          0.2    16.981973 0.0029435529     88.65829    11230.917 
    5300    42.505824   0.33484846   0.40395517 0.0048788836          0.2     17.09935 0.0029233572    88.440239    11230.116 
    5400    42.797266   0.33489249   0.40581356 0.0048788836          0.2    17.216023 0.0029035563    88.010037     11230.32 
    5500    43.086752   0.33475157   0.40721562 0.0048788836          0.2    17.331372 0.0028842483    87.854705    11230.839 
    5600    43.374318   0.33606172   0.40836629 0.0048788836          0.2    17.446404 0.0028652393    88.543616    11229.726 
    5700    43.659953   0.33533645    0.4100544 0.0048788836          0.2    17.560631 0.0028433776    88.451896    11228.817 
    5800    43.943755    0.3348811   0.41165541 0.0048788836          0.2    17.679411 0.0028274359     88.47115    11227.858 
    5900    44.225168   0.33500587   0.41318588 0.0048788836          0.2    17.822893 0.0028052392    89.734374    11224.212 
    6000    44.504902   0.33467262   0.41497837 0.0048788836          0.2    17.934778 0.0027877412    87.630514    11225.083 
    6100    44.782901   0.33451312   0.41668656 0.0048788836          0.2    18.045977 0.0027705648    88.311995    11224.453 
    6200    45.058427      0.33432   0.41817161 0.0048788836          0.2     18.24358 0.0027400449     86.90612    11226.743 
    6300    45.331723   0.33394236   0.41967461 0.0048788836          0.2    18.350537  0.002724054    88.353349    11225.951 
    6400    45.603405   0.33586586   0.42112189 0.0048788836          0.2     18.45921 0.0027080247    88.549186     11224.76 
    6500    45.873496   0.33457807   0.42260933 0.0048788836          0.2    18.567246 0.0026922751     88.25868    11224.138 
    6600    46.142025   0.33525265   0.42369135 0.0048788836          0.2    18.674698 0.0026767913    88.638804     11222.77 
    6700    46.409018   0.33521967   0.42498157 0.0048788836          0.2    18.781481 0.0026615796    88.702727    11221.289 
    6800    46.674504   0.33521011   0.42632648 0.0048788836          0.2     18.88675 0.0026467452    88.672778    11219.874 
    6900    46.938504   0.33511649   0.42795212 0.0048788836          0.2    19.007458 0.0026297818    88.846241     11218.15 
    7000    47.201044   0.33325113   0.42980744 0.0048788836          0.2    19.087056  0.002618545    88.366305     11217.31 
    7100    47.462253   0.33432261   0.43108451 0.0048788836          0.2    19.191666  0.002604272     87.12486    11218.717 
    7200    47.722048   0.33481722   0.43233697 0.0048788836          0.2    19.295583 0.0025902575    87.622459    11219.154 
    7300    47.980452   0.33379423   0.43376002 0.0048788836          0.2    19.398854  0.002576486    88.302252    11218.354 
    7400    48.237372   0.33417588   0.43515297 0.0048788836          0.2    19.512836 0.0025613079    87.932487    11218.183 
    7500    48.492901   0.33283018   0.43646902 0.0048788836          0.2    19.615048 0.0025479727    88.644068    11216.778 
    7600    48.747104   0.33370923   0.43741193 0.0048788836          0.2    19.719218 0.0025345216    88.699031    11215.289 
    7700    48.999946   0.33500147   0.43820949 0.0048788836          0.2    19.822781 0.0025213765    88.520257    11214.103 
    7800    49.251509   0.33435177   0.43982121 0.0048788836          0.2    19.923406 0.0025086517    88.382635    11213.143 
    7900    49.501809   0.33368312   0.44143723 0.0048788836          0.2    20.023526 0.0024961177     89.61424    11210.225 
    8000    49.750863   0.33505208   0.44228613 0.0048788836          0.2    20.123148 0.0024837697    86.805038     11211.83 
    8100    49.998691   0.33423342   0.44360276 0.0048788836          0.2    20.222279 0.0024716031    88.377867    11210.857 
    8200    50.245311   0.33410075   0.44475872 0.0048788836          0.2    20.320927 0.0024596136    88.219585    11210.125 
    8300    50.490739    0.3342628   0.44604574 0.0048788836          0.2    20.419079 0.0024477986     88.40717    11209.096 
    8400    50.734993   0.33422908   0.44718339 0.0048788836          0.2    20.516781 0.0024361505    88.650607    11207.698 
    8500     50.97809   0.33523098   0.44830828 0.0048788836          0.2    20.614019 0.0024246671    88.256581    11206.894 
    8600    51.220046   0.33381741   0.44936266 0.0048788836          0.2    20.710802 0.0024133446    88.396605    11205.875 
    8700    51.460877   0.33445285   0.45039632 0.0048788836          0.2    20.806939 0.0024022021    88.761482    11204.324 
    8800    51.700603   0.33311471   0.45114794 0.0048788836          0.2    20.902565 0.0023912219    88.508171    11203.146 
    8900    51.939236   0.33456299   0.45192239 0.0048788836          0.2    20.997836 0.0023803781    88.091535    11202.564 
    9000     52.17679   0.33454633   0.45310664 0.0048788836          0.2    21.092858 0.0023696621    88.054436    11202.022 
    9100     52.41329   0.33461303   0.45428297 0.0048788836          0.2     21.18248 0.0023596208     88.44423    11200.922 
    9200    52.648778   0.33415119   0.45529139 0.0048788836          0.2    21.275929 0.0023492445    88.891903    11199.208 
    9300    52.883238   0.33431767   0.45640163 0.0048788836          0.2    21.369713 0.0023389417    88.633072    11197.857 
    9400    53.116673     0.334113   0.45753678 0.0048788836          0.2    21.463071 0.0023287732    88.429201    11196.785 
    9500    53.349098   0.33452346   0.45870868 0.0048788836          0.2    21.556041 0.0023187363    88.121962    11196.123 
    9600    53.580525   0.33541781   0.45997512 0.0048788836          0.2    21.648612  0.002308828    88.592635    11194.828 
    9700    53.810966   0.33378966   0.46109915 0.0048788836          0.2    21.740788 0.0022990457    88.614777    11193.509 
    9800    54.040435   0.33453908   0.46201506 0.0048788836          0.2    21.832576 0.0022893866    87.962509    11193.039 
    9900    54.268943   0.33364976   0.46294873 0.0048788836          0.2    21.923988 0.0022798475    88.655704    11191.666 
   10000    54.496481   0.33445474   0.46383474 0.0048788836          0.2    22.021761 0.0022697309    88.134072    11190.959 
   10100    54.723055   0.33276541   0.46505239 0.0048788836          0.2     22.11003 0.0022606638    88.065529     11190.33 
   10200    54.948707   0.33437421   0.46590595 0.0048788836          0.2    22.200291 0.0022514786    88.191353    11189.534 
   10300    55.173446   0.33495224   0.46686927 0.0048788836          0.2    22.290186 0.0022424044    88.242488    11188.669 
   10400    55.397281   0.33352596   0.46812987 0.0048788836          0.2    22.379862 0.0022334242    88.346947     11187.67 
   10500    55.620224   0.33437809   0.46941382 0.0048788836          0.2    22.469039 0.0022245657    88.856895    11186.057 
   10600    55.842281   0.33387361   0.47068484 0.0048788836          0.2    22.568722 0.0022146541    88.934104    11184.363 
   10700    56.063432   0.33449951    0.4717195 0.0048788836          0.2    22.624205 0.0022091039    89.027545    11182.569 
   10800    56.283956   0.33422873   0.47282513 0.0048788836          0.2    22.712415 0.0022005313     88.28571    11181.653 
   10900    56.503627   0.33395451    0.4738391 0.0048788836          0.2    22.800283 0.0021920578    88.553879    11180.421 
   11000    56.722453   0.33332118   0.47463764 0.0048788836          0.2     22.88847 0.0021836193    86.617064    11181.461 
   11100    56.940442   0.33419679   0.47548538 0.0048788836          0.2    22.975624 0.0021753448    89.603806    11179.034 
   11200    57.157608     0.334625   0.47635594 0.0048788836          0.2     23.06249 0.0021671578    88.698337    11177.635 
   11300    57.373958   0.33467775     0.477249 0.0048788836          0.2     23.14903 0.0021590626     87.59373    11177.486 
   11400    57.589504   0.33425343   0.47860502 0.0048788836          0.2    23.235248 0.0021510573    88.238831    11176.595 
   11500    57.804252   0.33386016   0.47994876 0.0048788836          0.2    23.321148 0.0021431405    88.255021    11175.682 
   11600    58.018213   0.33350942   0.48097575 0.0048788836          0.2    23.406732 0.0021353104    87.947274    11175.103 
   11700    58.231395   0.33433084   0.48192738 0.0048788836          0.2    23.492005 0.0021275654    88.205188    11174.234 
   11800    58.443806   0.33438874   0.48292286 0.0048788836          0.2    23.576577 0.0021199377    88.229179    11173.334 
   11900    58.655459   0.33438391   0.48395942 0.0048788836          0.2    23.661173 0.0021123627    88.512654     11172.13 
   12000    58.866357   0.33437121   0.48514108 0.0048788836          0.2    23.745532 0.0021048639    87.681991    11171.807 
   12100    59.076509   0.33465201   0.48600984 0.0048788836          0.2    23.829593 0.0020974444    88.127165    11171.001 
   12200    59.285922   0.33440227   0.48698787 0.0048788836          0.2    23.913358 0.0020901028    88.290784    11170.019 
   12300    59.494599   0.33450832   0.48802727 0.0048788836          0.2      24.0094 0.0020817128    88.248392    11169.078 
   12400    59.702528   0.33446126   0.48909158 0.0048788836          0.2    24.078688 0.0020757707     88.27014    11168.112 
   12500    59.909787   0.33404691    0.4901203 0.0048788836          0.2    24.160802   0.00206872    88.736581    11166.673 
   12600    60.116342   0.33479294   0.49080151 0.0048788836          0.2    24.243412 0.0020616755     88.60158    11165.373 
   12700    60.322194   0.33396389   0.49160718 0.0048788836          0.2    24.325794 0.0020546981    88.251196    11164.425 
   12800    60.527353   0.33603848   0.49235479 0.0048788836          0.2    24.407867 0.0020477939    88.438524    11163.288 
   12900    60.731824    0.3341532   0.49341218 0.0048788836          0.2    24.489656 0.0020409597     87.91975    11162.662 
   13000    60.935587   0.33431199   0.49400032 0.0048788836          0.2    24.578136 0.0020335587    86.381521    11163.566 
   13100     61.13863   0.33428631   0.49465715 0.0048788836          0.2    24.677113 0.0020253209    88.414661    11162.433 
   13200    61.340925   0.33405981   0.49573684 0.0048788836          0.2    24.737807 0.0020202533    88.974383    11160.768 
   13300    61.542654   0.33341519   0.49661537 0.0048788836          0.2    24.818499  0.002013691    88.768808    11159.305 
   13400    61.744369   0.33387214   0.49756713 0.0048788836          0.2    23.970892 0.0020553553    88.200143    11158.381 
   13500    61.949819    0.3331509   0.49868529 0.0048788836          0.2    24.027447 0.0020511069    88.647609    11157.036 
   13600    62.154618   0.33394972   0.49953245 0.0048788836          0.2    24.108557 0.0020442722    88.713346    11155.633 
   13700    62.358693   0.33412053   0.50064061 0.0048788836          0.2    24.201887 0.0020359379    88.358821     11154.56 
   13800    62.561907   0.33391926   0.50175189 0.0048788836          0.2    24.263939 0.0020301964    88.368502    11153.477 
   13900    62.768567   0.33502373   0.50274302 0.0048788836          0.2    15.671358  0.002136214    90.071584    11150.876 
   14000     62.98203   0.33392713   0.50410912 0.0048788836          0.2    15.756743   0.00213234     88.01748    11150.121 
   14100    63.195074    0.3342467   0.50550909 0.0048788836          0.2    15.841861 0.0021281268    88.054122    11149.327 
   14200    63.407698   0.33348329    0.5066977 0.0048788836          0.2    15.926901 0.0021239189     88.19673    11148.401 
   14300    63.619883   0.33239174   0.50783989 0.0048788836          0.2     16.01293 0.0021187227     88.71783    11147.013 
   14400    63.831588   0.33316001   0.50887683 0.0048788836          0.2    16.099479 0.0021123293     88.22428     11146.06 
   14500    64.107069   0.33239446   0.51032003 0.0048788836          0.2    16.197876 0.0030722196    89.136013    11144.317 
   14600    64.413096    0.3329173   0.51160499 0.0048788836          0.2    16.344641 0.0030383779    88.840088    11142.834 
   14700    64.717962   0.33349691   0.51274266 0.0048788836          0.2    15.883963 0.0030596734    89.557736    11140.752 
   14800    65.022933   0.33512968   0.51382579 0.0048788836          0.2    16.005951 0.0030376281    88.672928    11139.425 
   14900    65.325721   0.33397619   0.51536061 0.0048788836          0.2    16.127066 0.0030160439    87.831709    11138.814 
   15000    65.626363   0.33504902   0.51687082 0.0048788836          0.2    16.258201 0.0029937751     88.05048     11138.01 
   15100    65.925209   0.33439732   0.51862429 0.0048788836          0.2    16.364011 0.0029783015    87.858883    11137.364 
   15200    66.221904   0.33316047   0.52023189 0.0048788836          0.2    16.530628 0.0029475737    88.630862    11136.069 
   15300     66.51557   0.33387641   0.52191952 0.0048788836          0.2    16.636009 0.0029236102    87.939843    11135.346 
   15400    66.828639   0.33378247   0.52381235 0.0048788836          0.2    12.299308  0.003197286    89.688361    11133.201 
   15500     67.14758   0.33350165   0.52567712 0.0048788836          0.2    12.426884 0.0031794011    88.926355    11131.676 
   15600    67.464609   0.33278256   0.52756788 0.0048788836          0.2    12.553696 0.0035670559    88.824773    11130.237 
   15700    67.818901   0.33280873   0.52934302 0.0048788836          0.2    12.695279 0.0035283807    89.292813    11128.433 
   15800    68.170627   0.33240806   0.53072848 0.0048788836          0.2    12.835969 0.0035037274    88.196638    11127.504 
   15900    68.523657   0.33248483   0.53266691 0.0048788836          0.2    12.977182 0.0038368524    88.986105     11125.95 
   16000    68.906123   0.33391182   0.53432982 0.0048788836          0.2    13.130168 0.0038011393    87.249913    11125.776 
   16100    69.284277   0.33397918   0.53651747 0.0048788836          0.2    13.282966 0.0037575071    88.171052    11124.859 
   16200    69.658141   0.33475394   0.53858625 0.0048788836          0.2    13.432358 0.0037158277    89.078691    11123.237 
   16300    70.027833    0.3338836   0.54080202 0.0048788836          0.2    13.622752 0.0036648041    87.890604    11122.537 
   16400    70.393553   0.33495926   0.54228403 0.0048788836          0.2    13.726925 0.0036383917    89.055767    11120.939 
   16500    70.755679   0.33280766   0.54458546 0.0048788836          0.2    13.871625 0.0036005123    88.250973    11119.957 
   16600    71.114067    0.3340738   0.54651662 0.0048788836          0.2     14.01498 0.0035637634     88.42702     11118.84 
   16700    71.468831    0.3344124   0.54864987 0.0048788836          0.2    14.156886  0.003528117    88.674484    11117.537 
   16800    71.825712   0.33468836   0.55085129 0.0048788836          0.2    12.851517 0.0038871814    89.412087    11115.691 
   16900    72.216036   0.33567662   0.55279627 0.0048788836          0.2    12.333981 0.0040408525     88.96506    11114.181 
   17000    72.618897   0.33388622   0.55590131 0.0048788836          0.2    11.961594 0.0040372352    89.329327     11112.41 
   17100    73.022494   0.33589758   0.55814894 0.0048788836          0.2    11.743028 0.0040152017    88.908259    11110.952 
   17200     73.42218    0.3339498   0.56056496 0.0048788836          0.2    11.890651 0.0039721173    88.990145    11109.438 
   17300    73.817277   0.33481714   0.56291888 0.0048788836          0.2    12.051268 0.0039252885    88.189943    11108.508 
   17400    74.207843   0.33534878   0.56517869 0.0048788836          0.2    12.198354 0.0038823873    88.015614    11107.703 
   17500    74.594106   0.33508739   0.56735841 0.0048788836          0.2    12.352859 0.0038387385     89.25369    11106.009 
   17600    74.976066   0.33583874   0.56962571 0.0048788836          0.2    12.504663 0.0037964558    88.330016    11104.975 
   17700    75.353991   0.33438736    0.5718113 0.0048788836          0.2    12.643642 0.0037578749    88.038781    11104.149 
   17800     75.72798    0.3338836   0.57374514 0.0048788836          0.2    12.793238 0.0037181275    88.337197    11103.107 
   17900    76.098048    0.3358793   0.57545452 0.0048788836          0.2    12.941265 0.0036795738      88.3457    11102.058 
   18000    76.464313    0.3357595   0.57754852 0.0048788836          0.2    13.087771 0.0036421564    87.875229    11101.338 
   18100    76.826907   0.33554163   0.57957878 0.0048788836          0.2    13.232285 0.0036065321    88.493774    11100.183 
   18200    77.185962   0.33494486   0.58159474 0.0048788836          0.2    13.375907  0.003571204     88.19929    11099.231 
   18300    77.541305   0.33491524   0.58363828 0.0048788836          0.2    13.516877 0.0035276646    88.713046    11097.925 
   18400    77.900402   0.33471156   0.58584583 0.0048788836          0.2    10.680414   0.00370871     90.35758    11095.527 
   18500    78.270544   0.33401389   0.58812925 0.0048788836          0.2    10.828471 0.0036976757    89.981228    11093.388 
   18600    78.639975   0.33309039   0.59021011 0.0048788836          0.2    10.976243 0.0036896817    87.927547     11092.63 
   18700    79.008626   0.33426196   0.59206379 0.0048788836          0.2    11.123703 0.0036824061    88.552626    11091.447 
   18800    79.376455   0.33341032    0.5940482 0.0048788836          0.2    11.683357 0.0036688948    88.796923    11090.102 
   18900    79.773587   0.33486526   0.59585192 0.0048788836          0.2    11.839278 0.0040844724    88.418892    11089.009 
   19000    80.179359   0.33541993   0.59784957 0.0048788836          0.2     11.97401 0.0040287436    88.420309    11087.915 
   19100    80.584738   0.33338373   0.60004299 0.0048788836          0.2     11.73911 0.0041618876    88.199512    11086.965 
   19200     81.00003   0.33428346   0.60180678 0.0048788836          0.2    11.905227 0.0041918257    88.507574    11085.813 
   19300    81.416599   0.33419454   0.60396474 0.0048788836          0.2    12.071855  0.004134182    88.819487    11084.459 
   19400    81.830251   0.33363836   0.60574099 0.0048788836          0.2    11.006035 0.0041436714    89.048223    11082.961 
   19500    82.245959   0.33451232   0.60755255 0.0048788836          0.2    11.167295 0.0042736273    89.119403    11081.422 
   19600    82.670152   0.33404878   0.60951654 0.0048788836          0.2    11.319607  0.004208584    88.910558    11080.019 
   19700    83.088235   0.33518902   0.61153245 0.0048788836          0.2     11.60711 0.0041860081    89.629503    11078.169 
   19800    83.501789   0.33375388   0.61366126 0.0048788836          0.2    11.781863 0.0041074494    89.383239     11076.48 
   19900    83.910414   0.33492089   0.61522392 0.0048788836          0.2    11.949738 0.0040585597    88.478354     11075.36 
   20000    84.313965    0.3350787    0.6171709 0.0048788836          0.2     12.11305 0.0040083526    87.994859    11074.544 
   20100    84.712574   0.33457446    0.6190185 0.0048788836          0.2    12.272494 0.0039591916    88.387086    11073.478 
   20200    85.110478   0.33448996   0.62031543 0.0048788836          0.2    12.290296 0.0040331679    89.801983    11071.548 
   20300    85.511631   0.33370066   0.62215157 0.0048788836          0.2    12.442481 0.0039836212    88.717999    11070.282 
   20400    85.907762   0.33516421   0.62374266 0.0048788836          0.2    12.600934  0.003934378    89.105752    11068.782 
   20500    86.298997   0.33386044    0.6255504 0.0048788836          0.2    12.784301 0.0038753778    88.149297    11067.868 
   20600    86.683018   0.33419513   0.62761924 0.0048788836          0.2    13.018197 0.0038176052    89.052118    11066.404 
   20700    87.062808   0.33376326   0.62956891 0.0048788836          0.2    13.170113 0.0037740902    88.781322    11065.106 
   20800    87.438305     0.332635   0.63151849 0.0048788836          0.2    13.322108 0.0037316594    89.085899    11063.629 
   20900    87.809635   0.33429654   0.63310409 0.0048788836          0.2    13.442195 0.0036962794      89.9377    11061.656 
   21000    88.177961   0.33397028   0.63499892 0.0048788836          0.2    13.563357 0.0036623696    88.648002    11060.446 
   21100    88.542457   0.33441566   0.63646201 0.0048788836          0.2    13.709156 0.0036239181     88.93418    11059.069 
   21200    88.903162   0.33401208   0.63835819 0.0048788836          0.2    13.853438 0.0035866482    89.959922    11057.102 
   21300    89.260191   0.33577585   0.64034359 0.0048788836          0.2    13.996747  0.003550379    88.865837    11055.771 
   21400    89.613604    0.3340539   0.64251432 0.0048788836          0.2    14.141508  0.003514916    88.806399    11054.477 
   21500    89.963555    0.3358743   0.64383948 0.0048788836          0.2    14.281488 0.0034808623    88.674878    11053.261 
   21600    90.310133   0.33463966   0.64618977 0.0048788836          0.2    14.420959 0.0034478191    88.766197    11051.993 
   21700    90.653439   0.33376434   0.64829434 0.0048788836          0.2    14.558539 0.0034153778    87.954614    11051.195 
   21800    90.993563   0.33485075   0.65016922 0.0048788836          0.2    14.694588 0.0033841014    88.855313    11049.876 
   21900    91.330592   0.33541574   0.65186456 0.0048788836          0.2    14.831326 0.0033533664    88.293609    11048.879 
   22000    91.664605   0.33407687   0.65340093 0.0048788836          0.2    14.963055 0.0033241327     88.54085    11047.741 
   22100    91.995723   0.33390688   0.65491988 0.0048788836          0.2    15.093897 0.0032953693    88.273874    11046.753 
   22200    92.323962   0.33405015   0.65652596 0.0048788836          0.2    15.224535 0.0032666679    88.576245    11045.594 
   22300    92.649317    0.3355594   0.65794329 0.0048788836          0.2    15.362107 0.0032355507    88.647534    11044.395 
   22400    92.971393   0.33446255   0.65999397 0.0048788836          0.2    15.487751 0.0032115603     89.52887    11042.713 
   22500    93.292342   0.33478199   0.66183322 0.0048788836          0.2    13.966135  0.003265338    89.850019    11040.862 
   22600    93.618905   0.33509661   0.66367591 0.0048788836          0.2    14.113955 0.0032556428    89.453105    11039.231 
   22700    93.942856   0.33565114   0.66559934 0.0048788836          0.2    14.228692 0.0032293378    89.127433     11037.78 
   22800    94.264677   0.33573663   0.66757282 0.0048788836          0.2    14.356813 0.0032044354    89.314433    11036.231 
   22900    94.584086     0.334943   0.66946239 0.0048788836          0.2    14.478062 0.0031811111    88.890471    11034.915 
   23000    94.901136   0.33510727   0.67123893 0.0048788836          0.2    14.604882 0.0031576274    87.820362    11034.182 
   23100    95.215852    0.3358814   0.67301294 0.0048788836          0.2    14.732533 0.0031337803    88.342276    11033.161 
   23200    95.528231    0.3355785   0.67472415 0.0048788836          0.2    14.851165 0.0031116436    88.525096    11032.041 
   23300    95.838399   0.33563684   0.67623568 0.0048788836          0.2    14.975232 0.0030895828    88.674109    11030.841 
   23400     96.14638   0.33481154   0.67766752 0.0048788836          0.2    15.099546 0.0030679918    89.313387    11029.305 
   23500    96.452161   0.33467234   0.67898964 0.0048788836          0.2    15.229167 0.0030404145    87.660386    11028.649 
   23600    96.766424   0.33423822   0.68070167 0.0048788836          0.2    12.303497 0.0032173243    89.900495    11026.814 
   23700    97.087583   0.33395038   0.68230094 0.0048788836          0.2    12.418535 0.0032016274    88.061572    11025.942 
   23800    97.406812   0.33527209   0.68352963 0.0048788836          0.2    12.548771 0.0031806097     88.56809      11024.8 
   23900    97.723966   0.33473891   0.68523043 0.0048788836          0.2    12.677319 0.0031601357    89.236637    11023.314 
   24000    98.038734   0.33431757   0.68658735 0.0048788836          0.2    10.989154 0.0041619598    87.801316    11022.576 
   24100    98.420087   0.33518474   0.68814257 0.0048788836          0.2    11.057088  0.003780255    91.389546    11020.023 
   24200    98.803148   0.33646687   0.69010983 0.0048788836          0.2    11.210313  0.004019964    91.877653    11017.248 
   24300    99.203274   0.33499947   0.69215838 0.0048788836          0.2     11.37526 0.0039794649    87.993622    11016.416 
   24400    99.599469    0.3361376   0.69341123 0.0048788836          0.2    11.573104 0.0039422625    88.563359    11015.289 
   24500    99.991948   0.33429914   0.69569447 0.0048788836          0.2    11.765914 0.0039030468    88.921547    11013.982 
   24600    100.38331   0.33311934   0.69777119 0.0048788836          0.2    11.922457 0.0041667683    88.766498    11012.753 
   24700    100.79743   0.33515637   0.69943791 0.0048788836          0.2    12.088105 0.0041103873    87.780589    11012.025 
   24800    101.20601   0.33378129    0.7016588 0.0048788836          0.2    12.251539 0.0040562267    88.818867     11010.77 
   24900    101.60927   0.33464955   0.70358832 0.0048788836          0.2    12.412844 0.0040041447    88.689447     11009.58 
   25000    102.00742   0.33498232   0.70524057 0.0048788836          0.2    12.572101 0.0039540121    87.383937    11009.048 
   25100    102.40063   0.33474148   0.70691824 0.0048788836          0.2    12.729386 0.0039057103    87.825217    11008.287 
   25200    102.78909   0.33408104   0.70842535 0.0048788836          0.2    12.884771 0.0038591308    88.242729    11007.316 
   25300    103.17297   0.33501626   0.70982128 0.0048788836          0.2    13.038321 0.0038141739    89.218567    11005.865 
   25400    103.55242   0.33456261   0.71137517 0.0048788836          0.2    13.190102 0.0037707476    88.733503    11004.652 
   25500    103.92759   0.33447987   0.71320683 0.0048788836          0.2    13.340171 0.0037287672    88.858796    11003.379 
   25600    104.29863   0.33493668   0.71493593 0.0048788836          0.2    13.488587 0.0036881542    89.142681    11001.971 
   25700    104.66567   0.33362984   0.71705448 0.0048788836          0.2    13.635401 0.0036488363    87.885816    11001.173 
   25800    105.02883   0.33428098   0.71887651 0.0048788836          0.2    13.780665  0.003610746    88.773054    10999.943 
   25900    105.38823    0.3350388   0.72046341 0.0048788836          0.2    13.924426 0.0035738209    88.197491     10998.99 
   26000    105.74397   0.33437625   0.72227335 0.0048788836          0.2    14.064352 0.0035387275    87.152214    10998.546 
   26100    106.09605   0.33476501   0.72371312 0.0048788836          0.2    14.242187 0.0034964895    88.350055    10997.515 
   26200    106.44427   0.33468514   0.72565702 0.0048788836          0.2    14.381586 0.0034630345    88.353833    10996.482 
   26300    106.83023     0.335602   0.72725505 0.0048788836          0.2    12.084309 0.0041311541    89.042911    10995.124 
   26400    107.24084   0.33259515    0.7296705 0.0048788836          0.2    12.248553 0.0040759271     88.20504    10994.161 
   26500    107.64502   0.33343495   0.73114102 0.0048788836          0.2    12.429711 0.0040174358    88.616032    10993.004 
   26600     108.0453   0.33534498   0.73242146 0.0048788836          0.2    12.559185  0.003976165    88.522761    10991.891 
   26700    108.44069   0.33333294   0.73453535 0.0048788836          0.2    12.716927  0.003926977    87.655164    10991.184 
   26800    108.83123   0.33448244   0.73607886 0.0048788836          0.2    12.873145 0.0038794364    88.304669     10990.17 
   26900     109.2171   0.33427494   0.73815428 0.0048788836          0.2    13.032268 0.0038320585    88.631424    10989.004 
   27000    109.59843   0.33301166   0.74010248 0.0048788836          0.2    13.156737 0.0037941657    87.973025    10988.143 
   27100     109.9759   0.33283604   0.74195372 0.0048788836          0.2    13.307504 0.0037513115    87.481792    10987.509 
   27200    110.34913    0.3343183   0.74415714 0.0048788836          0.2    13.477572 0.0037035757    88.733202    10986.294 
   27300    110.71582   0.33472747   0.74610062 0.0048788836          0.2    13.758222 0.0036250243    88.728866    10985.082 
   27400    111.07612   0.33408367   0.74788008 0.0048788836          0.2     13.91358 0.0035844916    89.435995    10983.555 
   27500    111.43293   0.33438911   0.74966604 0.0048788836          0.2    14.056304 0.0035482773    88.648321    10982.381 
   27600    111.78616   0.33447518   0.75157296 0.0048788836          0.2    14.197599 0.0035131375    88.949211    10981.074 
   27700    112.13593   0.33422931   0.75347395 0.0048788836          0.2    14.337507 0.0034790201    88.849403    10979.812 
   27800    112.48234    0.3340002   0.75554447 0.0048788836          0.2    14.476068 0.0034458766     87.76617    10979.037 
   27900    112.82402   0.33471171   0.75742332 0.0048788836          0.2     14.87071 0.0033486556    88.987861    10977.714 
   28000    113.15803   0.33330541   0.75929075 0.0048788836          0.2    14.979134 0.0033246419    88.132812    10976.772 
   28100    113.48919   0.33516608   0.76048981 0.0048788836          0.2    15.111597 0.0032957287    87.320155    10976.193 
   28200    113.81748    0.3341849   0.76246621 0.0048788836          0.2    15.251147 0.0032657235    87.932432    10975.335 
   28300    114.14081   0.33471119   0.76419055 0.0048788836          0.2    15.516887  0.003214975     88.99885    10974.007 
   28400    114.46116   0.33581852     0.765905 0.0048788836          0.2    15.641397 0.0031893433    88.571607    10972.867 
   28500    114.77894   0.33381934    0.7676157 0.0048788836          0.2    15.768508 0.0031637497    88.233448    10971.874 
   28600    115.09418   0.33536398   0.76896646 0.0048788836          0.2    15.895609 0.0031385387    87.539378    10971.185 
   28700    115.40692   0.33530815   0.77083872 0.0048788836          0.2    16.016239 0.0031147647     88.33742    10970.143 
   28800    115.71732   0.33493581   0.77273175 0.0048788836          0.2    16.140398 0.0030909116    88.342425    10969.099 
   28900    116.02536   0.33553997   0.77442342 0.0048788836          0.2    16.263613 0.0030675976    88.107523    10968.156 
   29000    116.33109    0.3355167   0.77603358 0.0048788836          0.2    16.385905 0.0030448027    88.584159    10967.007 
   29100    116.63456   0.33575959   0.77731359 0.0048788836          0.2    16.507294 0.0030225079    87.861791    10966.168 
   29200    116.93583   0.33757863   0.77823786 0.0048788836          0.2      16.6278 0.0030006953    87.968929     10965.28 
   29300    117.23493   0.33402812   0.78008042 0.0048788836          0.2    16.747442 0.0029793476    88.587077    10964.128 
   29400    117.53192   0.33493992   0.78163554 0.0048788836          0.2    16.866239 0.0029584487    88.158617    10963.158 
   29500    117.82684   0.33461527   0.78331272 0.0048788836          0.2    16.981868 0.0029382691    88.524722    10962.031 
   29600    118.11976   0.33567406   0.78447012 0.0048788836          0.2    17.099036 0.0029182168    88.365281    10960.972 
   29700     118.4107   0.33638395   0.78582433 0.0048788836          0.2     17.21541 0.0028985691    87.495205     10960.28 
   29800    118.69969   0.33555872   0.78721062 0.0048788836          0.2    17.331005 0.0028793126     88.56564    10959.135 
   29900    118.98676   0.33557554   0.78827377 0.0048788836          0.2    17.445836 0.0028604344     88.83322     10957.88 
   30000    119.27197   0.33595104   0.78999412 0.0048788836          0.2    17.559919 0.0028419224    87.970091    10956.983 
   30100    119.55534   0.33409489   0.79188814 0.0048788836          0.2    17.673301 0.0028237017    87.825915    10956.144 
   30200    119.83691     0.334984    0.7933611 0.0048788836          0.2    17.785481  0.002805949    87.388069    10955.487 
   30300    120.11672   0.33425567   0.79490043 0.0048788836          0.2    17.897403 0.0027884678    88.392544     10954.41 
   30400    120.39478   0.33578948    0.7957807 0.0048788836          0.2    18.011798 0.0027709517    88.044215    10953.476 
   30500    120.67121   0.33478656   0.79702253 0.0048788836          0.2    18.116747 0.0027548618    88.944156    10952.175 
   30600    120.94594   0.33516368   0.79823231 0.0048788836          0.2    18.223671 0.0027380804    88.527693    10951.042 
   30700    121.22409   0.33541957    0.7997321 0.0048788836          0.2    16.041655 0.0028621239    88.448296    10949.942 
   30800    121.55532   0.33494509    0.8013823 0.0048788836          0.2    13.091286  0.003466398    90.363226    10948.088 
   30900    121.90299   0.33573397   0.80287068 0.0048788836          0.2    13.243242 0.0034893534    90.965329    10946.008 
   31000    122.25297   0.33487885   0.80409931 0.0048788836          0.2    13.383233 0.0035125853    91.296846    10943.811 
   31100    122.60487    0.3362553   0.80527455 0.0048788836          0.2    13.523995 0.0035117268    90.650414    10941.863 
   31200    122.95454   0.33558215   0.80725231 0.0048788836          0.2    13.681821 0.0034714699    88.251437    10940.853 
   31300    123.30509    0.3347166   0.80935732 0.0048788836          0.2    13.453194 0.0035009003     90.41582    10939.002 
   31400    123.65427   0.33416604   0.81139755 0.0048788836          0.2     13.59305 0.0034754664    88.955795    10937.715 
   31500    124.00035   0.33497792   0.81320691 0.0048788836          0.2    13.732976 0.0034436988    88.180617    10936.734 
   31600    124.34337   0.33514564   0.81481782 0.0048788836          0.2    13.868157 0.0034137619    88.269899    10935.716 
   31700     124.6834   0.33634647   0.81657511 0.0048788836          0.2    14.004172 0.0033841922    87.872228    10934.855 
   31800    125.02053   0.33573299   0.81840042 0.0048788836          0.2    14.139023 0.0033556043    87.957787    10933.958 
   31900    125.35483   0.33459511   0.82004638 0.0048788836          0.2    14.272743  0.003327619    88.298813    10932.926 
   32000    125.68622   0.33653353   0.82116183 0.0048788836          0.2      14.4053 0.0032992331    86.216636    10932.721 
   32100    126.01495   0.33481665   0.82257147 0.0048788836          0.2    14.535365 0.0032726902    88.630956    10931.557 
   32200    126.34105   0.33539323    0.8239237 0.0048788836          0.2    14.540936 0.0032500661    88.583691    10930.411 
   32300    126.66493   0.33426422   0.82553527 0.0048788836          0.2    14.670247  0.003224924    88.302791    10929.374 
   32400    126.98612   0.33551286   0.82692385 0.0048788836          0.2    14.795024 0.0031840171    89.028415     10928.06 
   32500     127.3065   0.33588375    0.8281625 0.0048788836          0.2    14.922287  0.003349178     89.79264    10926.462 
   32600    127.63998   0.33583763   0.82955315 0.0048788836          0.2    15.070306 0.0033162468    87.653937    10925.674 
   32700    127.97032   0.33643606   0.83109425 0.0048788836          0.2    15.200682 0.0032877811    88.920661    10924.403 
   32800    128.29783   0.33560789   0.83302476 0.0048788836          0.2    15.331686 0.0032597143    87.962435    10923.494 
   32900    128.62256   0.33461508    0.8351406 0.0048788836          0.2     15.46158 0.0032323541    88.311362    10922.452 
   33000    128.94459   0.33536203   0.83681531 0.0048788836          0.2    15.590391 0.0032056716    87.479584    10921.725 
   33100    129.26398    0.3336601   0.83892103 0.0048788836          0.2    15.718147  0.003179639    87.883956    10920.841 
   33200     129.5808   0.33457799   0.84045532 0.0048788836          0.2    15.844874 0.0031542306    87.436965    10920.126 
   33300     129.8951   0.33493445   0.84154493 0.0048788836          0.2    15.970594 0.0031294216     88.19113    10919.123 
   33400    130.20694   0.33490934   0.84270128 0.0048788836          0.2    16.095333  0.003105189    88.590427    10917.973 
   33500    130.51639   0.33474864   0.84422457 0.0048788836          0.2    16.219113 0.0030815108    88.272239    10916.939 
   33600    130.82349   0.33541125   0.84592225 0.0048788836          0.2    16.345733 0.0030576836    87.765582    10916.094 
   33700    131.12829   0.33467548   0.84763678 0.0048788836          0.2    16.464084 0.0030358262    88.261633    10915.062 
   33800    131.43088   0.33555654   0.84894697 0.0048788836          0.2    16.585117 0.0030136873    87.900348    10914.164 
   33900    131.73127   0.33469034   0.85048293 0.0048788836          0.2    16.705273 0.0029920259    88.320735    10913.109 
   34000    132.02951    0.3349044   0.85183688 0.0048788836          0.2    16.825321  0.002970656    87.639102    10912.305 
   34100    132.32572   0.33432932   0.85353677 0.0048788836          0.2    16.936775 0.0029510597    87.541534    10911.534 
   34200    132.61991   0.33615535   0.85494785 0.0048788836          0.2    17.050326 0.0029313935    88.445648    10910.432 
   34300    132.91215   0.33517425   0.85667155 0.0048788836          0.2    17.171867 0.0029106367    89.135445    10909.083 
   34400    133.20261   0.33481939   0.85828051 0.0048788836          0.2    17.249675 0.0028978793    89.419692    10907.635 
   34500     133.4932   0.33540827   0.85988392 0.0048788836          0.2    10.665203 0.0044562855    88.720589    10906.436 
   34600    133.94006   0.33565058   0.86228019 0.0048788836          0.2    9.8975441 0.0044974823    91.516686    10904.276 
   34700    134.39229   0.33543385   0.86499053 0.0048788836          0.2    10.075478 0.0045527873    91.030401    10902.285 
   34800     134.8501   0.33622684   0.86737709 0.0048788836          0.2    10.257267 0.0046053104    91.865921    10900.022 
   34900    135.30877     0.335804    0.8703389 0.0048788836          0.2    10.474942 0.0045674428    89.160172    10898.679 
   35000    135.77233   0.33462787   0.87271346 0.0048788836          0.2    10.590358 0.0046063972    87.283794    10898.002 
   35100    136.20133   0.33637672   0.87507599 0.0048788836          0.2    11.364934 0.0042204932    89.308442    10896.608 
   35200    136.62081   0.33651083   0.87735792 0.0048788836          0.2    11.532728 0.0041638847    88.068802    10895.648 
   35300    137.03473   0.33642995   0.87922592 0.0048788836          0.2    11.698296 0.0041094357    88.804969     10894.43 
   35400     137.4433   0.33630856   0.88104731 0.0048788836          0.2    11.861874 0.0040568347    88.908805    10893.177 
   35500    137.84617   0.33695507   0.88327776 0.0048788836          0.2    11.497741 0.0041488209    88.156523    10892.184 
   35600    138.26748   0.33629883   0.88567898 0.0048788836          0.2     11.58923  0.004300187    88.748542    10890.987 
   35700    138.69428   0.33738737   0.88812197 0.0048788836          0.2    11.760961 0.0042380194    88.468799    10889.885 
   35800    139.11539   0.33618756   0.89045721 0.0048788836          0.2    11.929403 0.0041785459     87.89007    10888.985 
   35900    139.53066   0.33695847   0.89237478 0.0048788836          0.2     12.09551 0.0041215043    88.829118    10887.759 
   36000    139.94032   0.33742456   0.89435108 0.0048788836          0.2    12.259377 0.0040667333    86.875249    10887.213 
   36100    140.34461   0.33592616   0.89643475 0.0048788836          0.2    12.434134  0.004009527    88.059095    10886.249 
   36200    140.74257   0.33514512   0.89861669 0.0048788836          0.2    12.609633 0.0039536793    88.787224    10885.037 
   36300    141.13616   0.33514028   0.90085926 0.0048788836          0.2    12.684354 0.0039351143    89.507739    10883.585 
   36400    141.52957   0.33463042   0.90336691 0.0048788836          0.2    12.745745 0.0039164315    89.037354    10882.291 
   36500    141.91906   0.33537606   0.90519832 0.0048788836          0.2    12.904853 0.0038678536    88.424223    10881.203 
   36600    142.30379   0.33652175    0.9073382 0.0048788836          0.2    13.056431 0.0038213308    88.187774    10880.195 
   36700    142.68394   0.33488737   0.90969468 0.0048788836          0.2     13.19685 0.0037766101    87.662163    10879.364 
   36800    143.05945   0.33622255   0.91144744 0.0048788836          0.2    13.338482 0.0037250435    86.109355    10879.071 
   36900    143.43525   0.33734169   0.91296648 0.0048788836          0.2    12.627405 0.0037577498    86.995707    10878.463 
   37000    143.80932   0.33624118   0.91522788 0.0048788836          0.2    12.779546  0.003719236    85.879656    10878.242 
   37100    144.17951   0.33604174   0.91730343 0.0048788836          0.2    12.934116 0.0036808822    85.498949     10878.15 
   37200    144.54591   0.33521871   0.91951633 0.0048788836          0.2    13.080678 0.0036436504    86.456519    10877.717 
   37300    144.90864    0.3359134   0.92109528 0.0048788836          0.2    13.243416 0.0036074856    86.540895    10877.251 
   37400     145.2678   0.33563314   0.92286972 0.0048788836          0.2    13.390805  0.003572339    85.841041    10877.024 
   37500    145.62349   0.33582312   0.92495087 0.0048788836          0.2    13.621331 0.0035381648     85.75762    10876.821 
   37600     145.9758   0.33651407   0.92690752 0.0048788836          0.2    13.617378 0.0035048815     86.60349    10876.321 
   37700     146.3248    0.3365127   0.92856993 0.0048788836          0.2    13.756977 0.0034724269    86.087404    10875.995 
   37800    146.67062   0.33760111   0.92997933 0.0048788836          0.2    13.895305 0.0034409359    86.160174    10875.639 
   37900    147.01332   0.33564163   0.93177533 0.0048788836          0.2    14.063033 0.0034102591    87.352507    10874.877 
   38000    147.35266   0.33463319   0.93345247 0.0048788836          0.2     14.19734 0.0033826291    87.719914    10873.991 
   38100    147.68954   0.33573177   0.93476162 0.0048788836          0.2    14.332092  0.003352523    87.504295    10873.175 
   38200    148.02322   0.33523833   0.93617054 0.0048788836          0.2    14.465564  0.003331715    88.509441    10872.031 
   38300    148.36608   0.33509824   0.93773089 0.0048788836          0.2    14.602705 0.0034234114    88.482498    10870.895 
   38400    148.70698   0.33482757   0.93912414 0.0048788836          0.2    14.739068 0.0033917496    88.085226    10869.887 
   38500    149.04546   0.33604095   0.94026184 0.0048788836          0.2    14.515067 0.0033809172    88.541653    10868.732 
   38600    149.38233   0.33475572   0.94163899 0.0048788836          0.2    14.649816 0.0033539223    88.317685    10867.648 
   38700    149.71649   0.33478053   0.94298223 0.0048788836          0.2    14.783093 0.0033258461    87.936838    10866.686 
   38800    150.04778   0.33623943    0.9443687 0.0048788836          0.2     14.91561 0.0032972624    88.933539    10865.408 
   38900    150.37619    0.3359565   0.94552684 0.0048788836          0.2    15.103267 0.0032563765    88.460198    10864.279 
   39000    150.70025   0.33509903   0.94713114 0.0048788836          0.2    15.198885 0.0032286791    87.904051    10863.326 
   39100    151.02194   0.33561826   0.94835028 0.0048788836          0.2     15.32756 0.0032025587    87.140499    10862.617 
   39200    151.34104   0.33477472   0.94980094 0.0048788836          0.2    15.455202 0.0031770547    88.091535    10861.602 
   39300    151.65762   0.33524307   0.95115864 0.0048788836          0.2    15.581833 0.0031521434    87.953139     10860.63 
   39400     151.9717   0.33601276   0.95235571 0.0048788836          0.2    15.711954 0.0031269594     88.13835      10859.6 
   39500    152.28352   0.33537755   0.95366815 0.0048788836          0.2    15.822276 0.0031056695    88.304966    10858.516 
   39600    152.59303   0.33575374   0.95494328 0.0048788836          0.2    15.946082 0.0030823713     88.77762    10857.286 
   39700    152.90024   0.33581383   0.95608075 0.0048788836          0.2    16.070125 0.0030593054    87.763727    10856.372 
   39800    153.20516   0.33598147   0.95756573 0.0048788836          0.2    16.181618 0.0030377467    88.297884     10855.29 
   39900    153.50795   0.33510393   0.95904067 0.0048788836          0.2    16.300289 0.0030160644    88.160322     10854.25 
   40000     153.8087   0.33545543   0.96043341 0.0048788836          0.2    16.562477 0.0030083272    88.244437    10853.184 
   40100    154.10901   0.33622223   0.96165631 0.0048788836          0.2    16.651728 0.0029919201     88.50466    10852.038 
   40200    154.40724   0.33520495   0.96287721 0.0048788836          0.2    16.770994 0.0029706132     88.52291    10850.886 
   40300    154.70333     0.335234    0.9641266 0.0048788836          0.2    16.885775  0.002949639    88.344602    10849.789 
   40400    155.03005   0.33564055   0.96527408 0.0048788836          0.2    10.916523 0.0034491572    88.909691     10848.52 
   40500    155.37473   0.33553553   0.96672119 0.0048788836          0.2    11.054395 0.0034425397    89.510757    10847.074 
   40600    155.71917   0.33565345    0.9683168 0.0048788836          0.2     11.19217 0.0034452741    89.867615    10845.524 
   40700    156.06786   0.33640374   0.97031923 0.0048788836          0.2     11.36809  0.003851402    90.009556    10843.935 
   40800    156.45269   0.33552147   0.97283604 0.0048788836          0.2    11.430621 0.0042845684    89.684257    10842.443 
   40900    156.86181   0.33562236   0.97450051 0.0048788836          0.2    11.594267  0.004267782    89.662861    10840.959 
   41000    157.28585   0.33583291   0.97625777 0.0048788836          0.2    11.763884  0.004207489    88.342425    10839.867 
   41100      157.704    0.3355892   0.97781151 0.0048788836          0.2    11.930528 0.0041500968    88.259386    10838.799 
   41200    158.11655   0.33477317   0.97931583 0.0048788836          0.2    12.092975 0.0040953196     89.08851    10837.486 
   41300    158.52353   0.33610318   0.98047597 0.0048788836          0.2    12.264196 0.0040433401    87.891396    10836.529 
   41400     158.9256   0.33463313   0.98227516 0.0048788836          0.2    12.422085 0.0039927274    87.671764    10835.637 
   41500    159.32263    0.3343425   0.98358068 0.0048788836          0.2    12.580895 0.0039431189    87.866595    10834.685 
   41600    159.71469   0.33403946   0.98544541 0.0048788836          0.2    12.741623 0.0038941209    88.780777    10833.462 
   41700    160.10201   0.33489864   0.98700155 0.0048788836          0.2     12.89658 0.0038478822    88.462604    10832.333 
   41800    160.48446   0.33302336   0.98897765 0.0048788836          0.2    13.050677 0.0037970719    87.688151    10831.432 
   41900    160.86447   0.33425758   0.99046608 0.0048788836          0.2    12.382573 0.0037889203    89.399775    10830.032 
   42000    161.24149   0.33287019   0.99240057 0.0048788836          0.2    12.556031 0.0037495269    88.716667    10828.829 
   42100    161.61472   0.33381153   0.99408116 0.0048788836          0.2    12.704243 0.0037109331    87.800232    10827.894 
   42200    161.98404   0.33358317    0.9957051 0.0048788836          0.2    12.870523 0.0036734817    88.708411    10826.693 
   42300    162.35425   0.33349148   0.99735767 0.0048788836          0.2     12.02627 0.0038180315    88.345998    10825.598 
   42400    162.73561   0.33397858   0.99899404 0.0048788836          0.2    12.178813 0.0037928187    88.983575    10824.319 
   42500    163.12826    0.3345637     1.000555 0.0048788836          0.2    12.335871 0.0040036045    88.346873    10823.223 
   42600    163.52636   0.33520469    1.0030433 0.0048788836          0.2    12.495112 0.0039537997    88.520481    10822.078 
   42700    163.91956   0.33599739    1.0048125 0.0048788836          0.2    12.652394 0.0039057951    88.767061    10820.862 
   42800    164.30805    0.3351142    1.0070492 0.0048788836          0.2    12.807787 0.0038594852    87.591754    10819.984 
   42900    164.69197   0.33443977    1.0087092 0.0048788836          0.2    12.961357 0.0038147731    88.466616    10818.854 
   43000    165.07149   0.33556688    1.0107926 0.0048788836          0.2    13.113165 0.0037715693    88.033515    10817.847 
   43100    165.44676   0.33484274    1.0129132 0.0048788836          0.2    13.263271 0.0037297912    87.224184    10817.074 
   43200    165.81791   0.33597979    1.0146933 0.0048788836          0.2    13.411731 0.0036893625    88.428735    10815.953 
   43300    166.18507   0.33481366    1.0167292 0.0048788836          0.2     13.55879 0.0036501504    88.674259    10814.762 
   43400    166.55372   0.33464544    1.0183558 0.0048788836          0.2    13.167666 0.0037266986    89.339164    10813.387 
   43500    166.92448   0.33554452    1.0199463 0.0048788836          0.2    13.311796 0.0036838643    88.110392    10812.357 
   43600    167.29098   0.33497409    1.0217176 0.0048788836          0.2    13.538395 0.0036778369     88.38731    10811.248 
   43700    167.66815   0.33409644    1.0229484 0.0048788836          0.2    12.040689 0.0041156927    90.699911    10809.508 
   43800    168.07731   0.33407589    1.0251675 0.0048788836          0.2    12.201986 0.0040619976     88.20107    10808.452 
   43900    168.48114   0.33443612    1.0272481 0.0048788836          0.2    12.363732 0.0040097809    87.752471    10807.522 
   44000    168.87984   0.33429467    1.0287806 0.0048788836          0.2    12.523213 0.0039595634    88.158858    10806.478 
   44100    169.27359   0.33400949    1.0303031 0.0048788836          0.2    12.681833 0.0039112568    88.398729    10805.366 
   44200     169.6626   0.33493058     1.031878 0.0048788836          0.2    12.837437 0.0038645863    88.111391    10804.333 
   44300    170.04702   0.33504517    1.0334634 0.0048788836          0.2    12.991041 0.0038195659    88.566819    10803.175 
   44400    170.42701   0.33430385    1.0353954 0.0048788836          0.2    13.142873  0.003776082    88.191909     10802.12 
   44500    170.80271    0.3350104    1.0368455 0.0048788836          0.2    13.293154 0.0037340141    87.697373    10801.202 
   44600    171.17424   0.33436957     1.038528 0.0048788836          0.2    13.441416 0.0036927659    88.342258    10800.104 
   44700    171.54175   0.33398312    1.0405923 0.0048788836          0.2    13.587653 0.0036528095    88.434701    10798.981 
   44800    171.90398   0.33437895    1.0419463 0.0048788836          0.2    13.858393 0.0035834399    87.913171    10798.001 
   44900    172.26241   0.33337528    1.0435454 0.0048788836          0.2    13.892018 0.0035686642    89.007633    10796.723 
   45000    172.61739   0.33390045    1.0448313 0.0048788836          0.2    14.032172 0.0035346992    88.680559    10795.533 
   45100    172.96922    0.3340072    1.0460293 0.0048788836          0.2    14.179446 0.0034937998    88.194616    10794.476 
   45200    173.32193   0.33524989    1.0473618 0.0048788836          0.2    12.307089 0.0035152745    89.201679    10793.147 
   45300    173.67272   0.33486284    1.0488875 0.0048788836          0.2    12.447222 0.0034988282    89.626381    10791.708 
   45400    174.02185   0.33466542     1.050835 0.0048788836          0.2    12.586554 0.0034814259    87.987512    10790.707 
   45500    174.36917   0.33388208    1.0525961 0.0048788836          0.2    12.725561  0.003464125    88.109911    10789.672 
   45600    174.71482   0.33383943    1.0544578 0.0048788836          0.2    12.872247 0.0034434254    88.961965    10788.409 
   45700    175.07691   0.33540654    1.0558525 0.0048788836          0.2    10.779726 0.0038452993    89.211868    10787.081 
   45800     175.4846   0.33436363    1.0580878 0.0048788836          0.2    10.979946 0.0041460202    90.249869    10785.486 
   45900    175.89759   0.33472964    1.0601961 0.0048788836          0.2    11.151204 0.0041100472    88.021968    10784.475 
   46000    176.30697    0.3336905    1.0625105 0.0048788836          0.2    11.379713 0.0040740379    87.685676    10783.554 
   46100    176.71278   0.33436651    1.0642095 0.0048788836          0.2    11.559697 0.0040387703    87.421001    10782.704 
   46200    177.11509   0.33219816    1.0663396 0.0048788836          0.2    11.918059 0.0040040232    87.456765    10781.843 
   46300    177.51592   0.33463655     1.067985 0.0048788836          0.2    11.724753 0.0040187971    89.174806    10780.527 
   46400    177.91548   0.33333245    1.0702119 0.0048788836          0.2    11.869533 0.0039675307    88.394519    10779.415 
   46500    178.31013   0.33394037    1.0720026 0.0048788836          0.2    12.040138 0.0039212327    87.882575    10778.438 
   46600    178.70023   0.33407876    1.0742325 0.0048788836          0.2    12.183434 0.0038764559    89.437749    10777.056 
   46700    179.08591   0.33379729    1.0763643 0.0048788836          0.2    12.337708 0.0038331209    89.062178    10775.771 
   46800    179.46733   0.33506684     1.077972 0.0048788836          0.2    12.490273 0.0037911538    88.112261    10774.733 
   46900    179.84456   0.33490169    1.0797285 0.0048788836          0.2    12.637572  0.003749452    88.252143    10773.659 
   47000    180.21766    0.3350174    1.0812944 0.0048788836          0.2    12.772433 0.0037058513     87.61814     10772.75 
   47100     180.5874   0.33373763    1.0826523 0.0048788836          0.2    12.892307 0.0038001398    88.733427     10771.55 
   47200     180.9655   0.33514289    1.0838474 0.0048788836          0.2    13.043255 0.0037578735    88.956022    10770.294 
   47300    181.33943   0.33485514    1.0855262 0.0048788836          0.2    13.191219 0.0037169738    87.743476    10769.351 
   47400    181.70926   0.33534867    1.0871623 0.0048788836          0.2    13.339483 0.0036747188    88.028859    10768.333 
   47500     182.0748   0.33401692    1.0893072 0.0048788836          0.2    13.474544 0.0036293926    88.832825    10767.108 
   47600    182.43648   0.33280518     1.091684 0.0048788836          0.2    13.267889 0.0035819638    89.805387    10765.639 
   47700    182.79364   0.33376584    1.0932319 0.0048788836          0.2    13.425202 0.0035545375    88.254947    10764.563 
   47800    183.14765   0.33315892    1.0943972 0.0048788836          0.2    13.565225 0.0035217616     88.31722    10763.471 
   47900    183.49833   0.33361254    1.0958198 0.0048788836          0.2    13.705499 0.0034888114    88.003611    10762.459 
   48000    183.84576   0.33404297    1.0974491 0.0048788836          0.2    13.844472 0.0034567418    88.160952    10761.405 
   48100    184.19003   0.33436819    1.0993687 0.0048788836          0.2    13.982177  0.003425515    88.090129     10760.37 
   48200    184.53185   0.33410312     1.100835 0.0048788836          0.2    14.089172 0.0034270055    88.729955    10759.173 
   48300    184.87317   0.33376179    1.1024426 0.0048788836          0.2    14.227355  0.003396162    87.858644    10758.196 
   48400    185.21143    0.3352779    1.1039659 0.0048788836          0.2    14.362787 0.0033663052    88.244512     10757.12 
   48500    185.54675   0.33449328    1.1062267 0.0048788836          0.2    14.496912 0.0033371562    88.276754    10756.036 
   48600    185.87906   0.33438114     1.108271 0.0048788836          0.2    14.630362 0.0033074581    88.857215    10754.808 
   48700    186.20872   0.33477615    1.1095027 0.0048788836          0.2    14.751188 0.0032817647    87.474457    10753.927 
   48800    186.53568    0.3340614    1.1112413 0.0048788836          0.2    14.881969 0.0032547076    88.041258    10752.901 
   48900    186.85987   0.33381419    1.1128117 0.0048788836          0.2    14.960072  0.003232475    88.374348    10751.792 
   49000    187.18193   0.33312461    1.1146796 0.0048788836          0.2    15.093322  0.003204026    87.751645    10750.839 
   49100    187.50173   0.33484044    1.1162626 0.0048788836          0.2    10.978252 0.0042582627    87.961642    10749.832 
   49200    187.92565   0.33485537    1.1186037 0.0048788836          0.2    11.150795 0.0042162283    88.082599    10748.794 
   49300    188.34697   0.33542086    1.1205984 0.0048788836          0.2    11.318991 0.0043752319    88.960927     10747.54 
   49400    188.78155   0.33521243     1.123093 0.0048788836          0.2    11.492822  0.004310284    88.008504     10746.52 
   49500    189.20976   0.33477882    1.1252164 0.0048788836          0.2    11.664106 0.0042481297    88.281436    10745.433 
   49600    189.63186   0.33442492     1.126984 0.0048788836          0.2     11.83902 0.0041865483     88.10743    10744.388 
   49700    190.05189   0.33610338    1.1286047 0.0048788836          0.2    11.354316   0.00410634    88.446487     10743.26 
   49800    190.46215   0.33488747    1.1307268 0.0048788836          0.2    11.460463 0.0040778225     88.42907    10742.136 
   49900     190.8677   0.33545732    1.1329861 0.0048788836          0.2    11.621926 0.0040282465    87.866429     10741.15 
   50000    191.26834   0.33475722    1.1354451 0.0048788836          0.2     11.78227 0.0039792176    88.337978    10740.047 
   50100    191.66933   0.33514662    1.1372127 0.0048788836          0.2     11.51275 0.0043211307    87.899096    10739.052 
   50200    192.09859   0.33489856    1.1392163 0.0048788836          0.2    11.685107 0.0042579543    88.833464     10737.83 
   50300    192.52173   0.33492679    1.1409443 0.0048788836          0.2    11.837473 0.0042032191    88.527768    10736.682 
   50400    192.93943   0.33489569    1.1428327 0.0048788836          0.2    12.004429 0.0041453043    88.724849    10735.486 
   50500    193.35144   0.33578513    1.1443231 0.0048788836          0.2    12.169232 0.0040896883    88.349143    10734.381 
   50600    193.75799   0.33460687     1.146885 0.0048788836          0.2    12.331851 0.0040362468    88.014063    10733.356 
   50700    194.15913   0.33534622    1.1489403 0.0048788836          0.2    11.952606 0.0040828114    88.822647    10732.138 
   50800    194.56558   0.33535146    1.1508759 0.0048788836          0.2    12.118147 0.0040382339    88.795362    10730.926 
   50900    194.96718   0.33496126    1.1528058 0.0048788836          0.2    12.278787 0.0039891637     88.66813    10729.745 
   51000    195.36395   0.33567115    1.1546956 0.0048788836          0.2    12.437495 0.0039417782    87.662932    10728.804 
   51100    195.75605   0.33551115     1.156413 0.0048788836          0.2    12.594337 0.0038959854    87.637106    10727.869 
   51200    196.14364   0.33474411    1.1581938 0.0048788836          0.2    12.749373 0.0038509941    87.940691     10726.86 
   51300    196.52709   0.33601469     1.159985 0.0048788836          0.2    12.902753 0.0038088447    88.498871    10725.718 
   51400    196.90681   0.33604732    1.1618199 0.0048788836          0.2     13.05464 0.0037775213    88.963927    10724.468 
   51500    197.28329   0.33558407    1.1636266 0.0048788836          0.2    13.205233 0.0037833965    89.039509      10723.2 
   51600     197.6597   0.33439369    1.1655641 0.0048788836          0.2    13.356092 0.0037407204    88.357965    10722.092 
   51700    198.03177   0.33455524    1.1672119 0.0048788836          0.2    13.511403 0.0036981298    88.935047    10720.849 
   51800    198.39977   0.33508196     1.168538 0.0048788836          0.2    13.659155 0.0036582793     88.48892     10719.71 
   51900    198.76386   0.33479313    1.1704742 0.0048788836          0.2    13.804636 0.0036197684    87.747239    10718.746 
   52000    199.12415   0.33416365    1.1726412 0.0048788836          0.2    13.948751 0.0035824148    87.620299    10717.811 
   52100    199.48075   0.33372445    1.1748291 0.0048788836          0.2    14.091392 0.0035461941    88.523788    10716.663 
   52200    199.83379   0.33529043    1.1766933 0.0048788836          0.2    14.231828  0.003511233    88.449229    10715.533 
   52300    200.18335   0.33442653     1.178587 0.0048788836          0.2    14.372153 0.0034770748    88.771946    10714.329 
   52400    200.52957   0.33532617    1.1801353 0.0048788836          0.2    14.510748 0.0034438855    88.648396    10713.153 
   52500    200.87228   0.33560579    1.1811658 0.0048788836          0.2    14.594294 0.0034236902    89.943833    10711.684 
   52600    201.21325   0.33435597    1.1825372 0.0048788836          0.2    14.729275 0.0033923352    88.441023    10710.556 
   52700    201.55109   0.33482633    1.1839314 0.0048788836          0.2    14.864411 0.0033615352    88.942025    10709.314 
   52800    201.88589      0.33595    1.1851687 0.0048788836          0.2    14.998331  0.003331559    89.186088    10708.018 
[...]
  985300    3657.7036   0.33341903    16.240633 0.0048788836          0.2     13.59507 0.0036774396    89.944547    166.16053 
  985400    3658.0696    0.3339742    16.242339 0.0048788836          0.2    13.741459 0.0036382713    89.124573    165.03006 
  985500    3658.4317   0.33258347    16.244114 0.0048788836          0.2    13.885488  0.003600534    89.204165    163.89958 
  985600    3658.7901   0.33365752    16.245452 0.0048788836          0.2    14.026759 0.0035642554    89.370459    162.76908 
  985700    3659.1449   0.33417122    16.247159 0.0048788836          0.2    14.172622 0.0035275444    89.611904    161.63853 
  985800    3659.4962   0.33467944    16.248638 0.0048788836          0.2    14.308746  0.003493972    89.399471    160.50802 
  985900     3659.844   0.33530835    16.249604 0.0048788836          0.2    14.452469 0.0034592612    89.642433    159.37747 
  986000    3660.1885   0.33403619    16.250902 0.0048788836          0.2    14.590632 0.0034265313    89.150563    158.24701 
  986100    3660.5284   0.33357261    16.252522 0.0048788836          0.2    15.284327 0.0032507668    88.773844    157.11662 
  986200    3660.8536   0.33373402    16.253932 0.0048788836          0.2    15.346235 0.0032389325    90.201172    155.98598 
  986300    3661.1763   0.33288703    16.255461 0.0048788836          0.2     15.47531 0.0032122311     89.27472     154.8555 
  986400    3661.4963   0.33337499     16.25658 0.0048788836          0.2    15.603328  0.003186177    89.792236    153.72494 
  986500    3661.8138   0.33380408    16.257897 0.0048788836          0.2    15.730315 0.0031607447    89.604362    152.59442 
  986600    3662.1287   0.33396544    16.259412 0.0048788836          0.2    15.856709 0.0031358322    89.280934    151.46395 
  986700    3662.4412   0.33301746    16.261162 0.0048788836          0.2    15.979657 0.0031124667    89.847825    150.33339 
  986800    3662.7514   0.33323085    16.262527 0.0048788836          0.2    16.103726 0.0030887365    89.375639    149.20291 
  986900    3663.0588   0.33502845    16.263399 0.0048788836          0.2    16.313426   0.00306092     90.07938    148.07231 
  987000    3663.3639    0.3343533    16.264747 0.0048788836          0.2    16.435426  0.003038253    88.052588    146.94206 
  987100    3663.6667   0.33472738    16.265728 0.0048788836          0.2    16.556555  0.003016082      88.9421    145.81166 
  987200    3663.9673   0.33432055    16.267195 0.0048788836          0.2    16.676806 0.0029943891    88.837171    144.68128 
  987300    3664.2658    0.3349671     16.26849 0.0048788836          0.2    16.796198 0.0029731573    88.435074    143.55096 
  987400    3664.5622   0.33461424    16.269929 0.0048788836          0.2    16.914749 0.0029523706    88.303739    142.42066 
  987500    3664.8565   0.33439238    16.271161 0.0048788836          0.2    17.032476 0.0029320136    88.533486    141.29033 
  987600    3665.1488   0.33399963    16.272133 0.0048788836          0.2    17.149396 0.0029120718    87.035079    140.16024 
  987700    3665.4391   0.33498374    16.273328 0.0048788836          0.2    17.264843  0.002892665    86.566222    139.03023 
  987800    3665.7275   0.33363681    16.274689 0.0048788836          0.2    17.380203 0.0028735095    86.588561     137.9002 
  987900     3666.014   0.33394372    16.275823 0.0048788836          0.2    17.494804 0.0028547295    86.390471    136.77021 
  988000    3666.2987   0.33452515    16.277056 0.0048788836          0.2    17.608661 0.0028363127    86.094242    135.64025 
  988100    3666.5815   0.33412103    16.278458 0.0048788836          0.2    17.721787 0.0028182476    86.095921    134.51029 
  988200    3666.8625   0.33391639    16.280012 0.0048788836          0.2    17.834015 0.0028005204    86.398105    133.38028 
  988300    3667.1418   0.33308238    16.281218 0.0048788836          0.2    17.945721 0.0027831263    86.126117     132.2503 
  988400    3667.4193   0.33389998    16.282289 0.0048788836          0.2    18.056987 0.0027660747    86.252841     131.1203 
  988500    3667.6951   0.33441376    16.283268 0.0048788836          0.2    18.168667 0.0027491768    85.831169    129.99035 
  988600    3667.9693   0.33347949    16.284241 0.0048788836          0.2    18.276681 0.0027329695    86.216778    128.86034 
  988700    3668.2419   0.33324627    16.285461 0.0048788836          0.2    18.385928 0.0027168125    86.094013    127.73035 
  988800    3668.5129   0.33418385    16.286437 0.0048788836          0.2    18.494313 0.0027009216    85.855186    126.60038 
  988900    3668.7822   0.33368815    16.287699 0.0048788836          0.2    18.601112 0.0026853524    86.054375    125.47037 
  989000    3669.0501   0.33383827    16.288837 0.0048788836          0.2    18.708249 0.0026700043    86.014985    124.34037 
  989100    3669.3164   0.33444898    16.289905 0.0048788836          0.2    18.814776 0.0026549163    88.030891    123.21006 
  989200    3669.5812    0.3342349    16.291339 0.0048788836          0.2    18.921827 0.0026399129    88.795832    122.07965 
  989300    3669.8445   0.33396654    16.292753 0.0048788836          0.2    15.441568  0.003224816    88.410133    120.94929 
  989400    3670.1611   0.33405995    16.294073 0.0048788836          0.2    14.642872 0.0031510689    89.077972    119.81884 
  989500    3670.4768   0.33530689    16.294578 0.0048788836          0.2    14.790196 0.0032222395    88.959588    118.68841 
  989600    3670.7979   0.33567713    16.295502 0.0048788836          0.2     14.92112 0.0031959902    88.475293    117.55804 
  989700    3671.1169   0.33425345    16.296964 0.0048788836          0.2    14.974911 0.0031802588    89.083591    116.42759 
  989800    3671.4338   0.33487391    16.298408 0.0048788836          0.2    15.101683 0.0031560105    87.715695    115.29733 
  989900    3671.7484   0.33444614    16.299988 0.0048788836          0.2    15.227495 0.0031322907    88.856575    114.16691 
  990000    3672.0605   0.33376441    16.301948 0.0048788836          0.2    15.352367 0.0031090809    87.098228    113.03673 
  990100    3672.3704   0.33524309    16.303532 0.0048788836          0.2    15.476319 0.0030863635    88.524405    111.90635 
  990200    3672.6781   0.33457583    16.305231 0.0048788836          0.2    15.599372 0.0030641217    87.847768    110.77606 
  990300    3672.9835   0.33396325    16.307103 0.0048788836          0.2    15.721543 0.0030423394    88.139424    109.64574 
  990400    3673.2868    0.3338513    16.308494 0.0048788836          0.2    15.842851 0.0030210014    88.977629     108.5153 
  990500    3673.5879   0.33535501    16.309682 0.0048788836          0.2    15.963314 0.0030000931     88.04732    107.38499 
  990600     3673.887   0.33525733    16.311074 0.0048788836          0.2    16.081767 0.0029795785    88.125202    106.25466 
  990700     3674.184   0.33531015     16.31221 0.0048788836          0.2     16.18947 0.0029593406    88.038171    105.12434 
  990800    3674.4793    0.3360215    16.313469 0.0048788836          0.2    16.739062 0.0029381522     88.79322    103.99394 
  990900     3674.775    0.3350426    16.314799 0.0048788836          0.2    15.837434 0.0029577944    90.506504    102.86333 
  991000    3675.0704   0.33585519    16.315671 0.0048788836          0.2    15.957132 0.0029456561    87.865122    101.73304 
  991100    3675.3641   0.33455525    16.317056 0.0048788836          0.2    16.074614 0.0029266058    88.164306    100.60271 
  991200    3675.6561   0.33424195    16.318479 0.0048788836          0.2    16.196138 0.0029134129    88.407393    99.472345 
  991300    3675.9466   0.33419539    16.319396 0.0048788836          0.2     16.31234 0.0028949076    88.347338     98.34199 
  991400    3676.2353   0.33453112    16.320664 0.0048788836          0.2    16.427808 0.0028767368    88.040112     97.21167 
  991500    3676.5222    0.3339715    16.322463 0.0048788836          0.2    16.542556 0.0028588907    88.425379    96.081306 
  991600    3676.8073    0.3343502    16.323985 0.0048788836          0.2    16.656595 0.0028413602    88.518221    94.950933 
  991700    3677.0906   0.33433964    16.325347 0.0048788836          0.2    16.769938 0.0028241361    88.185753    93.820594 
  991800    3677.3723   0.33469824    16.326544 0.0048788836          0.2    16.882598   0.00280721    89.434393    92.690125 
  991900    3677.6522   0.33443986    16.327569 0.0048788836          0.2    16.994586 0.0027905736    88.146278    91.559791 
  992000    3677.9306   0.33576745    16.328752 0.0048788836          0.2     17.10671 0.0027741278    88.353498    90.429435 
  992100    3678.2071    0.3349078     16.32999 0.0048788836          0.2    17.195158 0.0027528013    88.199828    89.299094 
  992200    3678.4847   0.33564027    16.331051 0.0048788836          0.2    17.673971  0.002783728    89.738982      88.1686 
  992300    3678.7799    0.3338228    16.332581 0.0048788836          0.2    11.253368 0.0029520843    89.948115    87.038089 
  992400    3679.0729   0.33500483    16.333501 0.0048788836          0.2    11.317518 0.0029102363     90.55166    85.907525 
  992500    3679.3643    0.3338959    16.334803 0.0048788836          0.2    11.433619 0.0029122412    89.915932    84.777025 
  992600    3679.6554   0.33405981    16.336301 0.0048788836          0.2    11.550048 0.0029057574    88.692973    83.646643 
  992700    3679.9713   0.33461768    16.338111 0.0048788836          0.2    14.653076 0.0032213146    90.568808     82.51609 
  992800    3680.2924   0.33410778    16.339634 0.0048788836          0.2    14.789468 0.0031974785    88.920812    81.385691 
  992900     3680.611   0.33416537    16.340564 0.0048788836          0.2    14.916852 0.0031729936    89.237985    80.255264 
  993000    3680.9272   0.33373179    16.341642 0.0048788836          0.2     15.04798 0.0031485929    87.812658    79.124968 
  993100     3681.241   0.33411012    16.343142 0.0048788836          0.2      15.1735 0.0031251752    88.058947    77.994648 
  993200    3681.5525   0.33483038    16.344932 0.0048788836          0.2    15.298093 0.0031022536    88.951343    76.864249 
  993300    3681.8617   0.33448244    16.346597 0.0048788836          0.2    15.420989 0.0030798167    88.849874    75.733859 
  993400    3682.1687   0.33546203    16.348137 0.0048788836          0.2    15.543732 0.0030578434    88.793783    74.603475 
  993500    3682.4735   0.33535961    16.349401 0.0048788836          0.2    15.665657 0.0030363132    88.863691    73.473087 
  993600    3682.7774   0.33595576    16.350388 0.0048788836          0.2    16.381457  0.003036659    89.066547    72.342683 
  993700    3683.0801   0.33548664    16.351889 0.0048788836          0.2    16.502525 0.0030146054    88.884311    71.212295 
  993800    3683.3806   0.33449353    16.353505 0.0048788836          0.2    16.622719 0.0029930239    88.734141     70.08192 
  993900    3683.6789   0.33597106    16.354535 0.0048788836          0.2    16.741593 0.0029719628    88.670791     68.95155 
  994000    3683.9752   0.33503426    16.355776 0.0048788836          0.2    16.861898 0.0029507847    88.884858    67.821165 
  994100    3684.2694   0.33561219    16.357105 0.0048788836          0.2    16.973426 0.0029314169    86.228902    66.690986 
  994200    3684.5616   0.33542451    16.358548 0.0048788836          0.2    17.090324 0.0029115591    86.040976    65.560817 
  994300    3684.8519   0.33352447     16.36001 0.0048788836          0.2    17.206435 0.0028920983    86.312035     64.43062 
  994400    3685.1403   0.33390199     16.36163 0.0048788836          0.2    17.321774 0.0028730214    86.202886    63.300425 
  994500    3685.4267   0.33402567    16.363282 0.0048788836          0.2    17.436661 0.0028542477    85.830045    62.170252 
  994600    3685.7113   0.33466237    16.364523 0.0048788836          0.2     17.54684 0.0028363256    88.332211    61.039894 
  994700    3685.9942   0.33482999    16.365957 0.0048788836          0.2    17.659967 0.0028183226    88.753593    59.909506 
  994800    3686.2752   0.33471855    16.367264 0.0048788836          0.2    17.778048 0.0028002378    88.809388    58.779115 
  994900    3686.5546   0.33494991     16.36829 0.0048788836          0.2    17.872586 0.0027856322    88.945495    57.648716 
  995000    3686.8324   0.33626045    16.369144 0.0048788836          0.2    17.983703 0.0027685658    88.258141    56.518362 
  995100    3687.1085   0.33549834    16.370077 0.0048788836          0.2    18.092943 0.0027519697    88.466205    55.387995 
  995200     3687.383   0.33473904    16.371267 0.0048788836          0.2    18.201732 0.0027356748    88.552234    54.257623 
  995300    3687.6558   0.33561549    16.372406 0.0048788836          0.2    18.310001 0.0027196317    89.444253    53.127197 
  995400    3687.9271   0.33434658    16.373897 0.0048788836          0.2    18.418606 0.0027037223    89.287947    51.996783 
  995500    3688.1968   0.33491029    16.374838 0.0048788836          0.2    18.526566 0.0026880391    88.807263    50.866399 
  995600    3688.4649   0.33484619    16.376045 0.0048788836          0.2    18.632337 0.0026727267    89.355761    49.735985 
  995700    3688.7315   0.33526194    16.377138 0.0048788836          0.2     18.73869 0.0026576066    89.483296    48.605566 
  995800    3688.9964    0.3361259    16.378108 0.0048788836          0.2    18.803391  0.002648993    89.081699    47.475171 
  995900    3689.2601   0.33455501    16.379474 0.0048788836          0.2    18.967666 0.0026281658     89.40513    46.344761 
  996000    3689.5221   0.33655647    16.380286 0.0048788836          0.2    19.124926 0.0026122669    89.027545    45.214373 
  996100    3689.7826   0.33451754    16.381735 0.0048788836          0.2    19.268252 0.0025940213    89.838298    44.083946 
  996200      3690.05   0.33520458    16.382548 0.0048788836          0.2     11.52477 0.0027063582    90.277472    42.953502 
  996300    3690.3202   0.33475675    16.383255 0.0048788836          0.2    11.613709 0.0026965479    89.220161    41.823111 
  996400    3690.5894   0.33492132    16.384143 0.0048788836          0.2    11.719039 0.0026867845    89.649426    40.692703 
  996500    3690.8576   0.33450864     16.38513 0.0048788836          0.2    11.826335 0.0026770689    89.572979    39.562301 
  996600    3691.1249   0.33490758    16.386082 0.0048788836          0.2    11.933245 0.0026674285    89.641897    38.431899 
  996700    3691.3912   0.33407011    16.387018 0.0048788836          0.2    12.037274 0.0026546717    89.394345     37.30151 
  996800    3691.7515   0.33430478    16.388309 0.0048788836          0.2    12.180063 0.0039172784    90.963574    36.171062 
  996900     3692.142   0.33404147    16.389591 0.0048788836          0.2     12.33723 0.0036646472    91.783459    35.040589 
  997000    3692.5089   0.33377338    16.390739 0.0048788836          0.2     12.50792 0.0036758761    90.841033    33.910159 
  997100     3692.877   0.33468207    16.392153 0.0048788836          0.2    11.301479 0.0036861353    90.863664    32.779734 
  997200    3693.2492   0.33492915    16.393328 0.0048788836          0.2    11.370628 0.0040411591    91.127549    31.649305 
  997300    3693.6509   0.33550817    16.394799 0.0048788836          0.2    11.555399 0.0039896087    88.822102    30.518961 
  997400    3694.0464   0.33435848     16.39651 0.0048788836          0.2    12.039598 0.0039137802    89.145618    29.388607 
  997500    3694.4352    0.3338669     16.39834 0.0048788836          0.2    12.184473 0.0038497433    88.798051    28.258265 
  997600    3694.8684   0.33368983    16.399961 0.0048788836          0.2    10.172959 0.0047613723    90.065008    27.127886 
  997700    3695.3455    0.3346626    16.401443 0.0048788836          0.2    10.363769 0.0047808601    92.132531    25.997454 
  997800    3695.8212   0.33415666    16.403635 0.0048788836          0.2     10.55348 0.0047307469    90.561006    24.867073 
  997900    3696.2905   0.33508176    16.405292 0.0048788836          0.2    10.741207 0.0046483084    88.415854    23.736753 
  998000    3696.7517   0.33463078    16.407253 0.0048788836          0.2    10.940624 0.0045635697    88.542102    22.606429 
  998100    3697.2029   0.33472856     16.40878 0.0048788836          0.2      10.5448 0.0045224482    88.565098    21.476105 
  998200    3697.6506   0.33479063    16.410656 0.0048788836          0.2    10.723894 0.0044246698     88.79228    20.345777 
  998300     3698.095   0.33528718     16.41243 0.0048788836          0.2    10.953056  0.004546326     89.43281    19.215435 
  998400    3698.5482   0.33502728    16.414183 0.0048788836          0.2    11.076631 0.0044981296    88.753424     18.08511 
  998500    3698.9948   0.33407673    16.415649 0.0048788836          0.2    11.255269 0.0044272272    88.992052     16.95478 
  998600    3699.4345   0.33426956    16.416971 0.0048788836          0.2     11.43113 0.0043595697    88.523527    15.824461 
  998700    3699.8675   0.33466821    16.419016 0.0048788836          0.2    11.603669 0.0042948452    89.166142    14.694131 
  998800    3700.2942   0.33510225    16.420758 0.0048788836          0.2     11.77434 0.0042329895     88.92841    13.563806 
  998900    3700.7145   0.33467208     16.42281 0.0048788836          0.2    11.998293 0.0041497155    88.748391    12.433485 
  999000    3701.1266   0.33399114    16.424856 0.0048788836          0.2    12.184459  0.004093365    88.504268    11.303168 
  999100    3701.5335    0.3344729    16.426113 0.0048788836          0.2    12.347134 0.0040396646    88.126387    10.172855 
  999200    3701.9504   0.33362763    16.427607 0.0048788836          0.2    11.513209 0.0042902999    88.805214    9.0425342 
  999300    3702.3769   0.33385475    16.429503 0.0048788836          0.2    11.678541  0.004235164    88.873256    7.9122138 
  999400    3702.7977   0.33542176    16.431355 0.0048788836          0.2    11.847207 0.0041762466    89.099317    6.7818928 
  999500    3703.2128   0.33522826    16.433333 0.0048788836          0.2    12.015877 0.0041194686    88.623165    5.6515763 
  999600    3703.6223   0.33398119    16.435547 0.0048788836          0.2    12.179389 0.0040659719    88.364592    4.5212616 
  999700    3704.0267    0.3336901    16.437158 0.0048788836          0.2    12.325205 0.0040255005    88.586048    3.3909458 
  999800    3704.4269   0.33434689    16.438609 0.0048788836          0.2    12.485099 0.0039748537    88.527151    2.2606304 
  999900    3704.8222   0.33551122     16.43976 0.0048788836          0.2    12.643305 0.0039258546     88.68189    1.1303149 
 1000000     3705.212   0.33428987    16.441481 0.0048788836          0.2    12.894168 0.0038531389    88.346947            0 
Loop time of 11303.2 on 4 procs for 1000000 steps with 174392 atoms

Performance: 29452.956 tau/day, 88.471 timesteps/s
232.0% CPU use with 1 MPI tasks x 4 OpenMP threads

MPI task timing breakdown:
Section |  min time  |  avg time  |  max time  |%varavg| %total
---------------------------------------------------------------
Pair    | 3494       | 3494       | 3494       |   0.0 | 30.91
Neigh   | 144.38     | 144.38     | 144.38     |   0.0 |  1.28
Comm    | 1233.1     | 1233.1     | 1233.1     |   0.0 | 10.91
Output  | 28.118     | 28.118     | 28.118     |   0.0 |  0.25
Modify  | 5789.6     | 5789.6     | 5789.6     |   0.0 | 51.22
Other   |            | 613.9      |            |       |  5.43

Nlocal:    174392 ave 174392 max 174392 min
Histogram: 1 0 0 0 0 0 0 0 0 0
Nghost:    66587 ave 66587 max 66587 min
Histogram: 1 0 0 0 0 0 0 0 0 0
Neighs:    0 ave 0 max 0 min
Histogram: 1 0 0 0 0 0 0 0 0 0

Total # of neighbors = 0
Ave neighs/atom = 0
Neighbor list builds = 326945
Dangerous builds = 0

Please see the log.cite file for references relevant to this simulation

Total wall time: 3:09:13
