#package gpu 1
#suffix gpu
# variable rho equal 0.03

units lj
atom_style atomic

lattice fcc 0.975
Lattice spacing in x,y,z = 1.60085 1.60085 1.60085
region box block 0 60 0 30 0 30
create_box 2 box
Created orthogonal box = (0 0 0) to (96.0513 48.0256 48.0256)
  1 by 1 by 1 MPI processor grid
create_atoms 1 box
Created 216000 atoms
  Time spent = 0.040823 secs
mass 1 4.0
mass 2 0.5


pair_style lj/cut 2.5
pair_coeff 1 1 1.0 1.0 2.5
pair_coeff 2 2 0.5 0.88 2.5
pair_coeff 1 2 0.2 1.0 2.5
#pair_coeff 1 2 1.5 0.8 2.5
pair_modify mix geometric
neigh_modify every 1 delay 0 check yes

variable R equal 12
region cylinder1 cylinder x $(0.5*ly) $(0.5*lz) $R EDGE EDGE units box
region cylinder1 cylinder x 24.012813670346833561 $(0.5*lz) $R EDGE EDGE units box
region cylinder1 cylinder x 24.012813670346833561 24.012813670346833561 $R EDGE EDGE units box
region cylinder1 cylinder x 24.012813670346833561 24.012813670346833561 12 EDGE EDGE units box

group cylinder1 region cylinder1
41820 atoms in group cylinder1
variable V equal PI*v_R*v_R*lx
# variable rho equal 0.1
variable natoms equal $V*${rho}
variable natoms equal 43452.5639148185*${rho}
variable natoms equal 43452.5639148185*0.002
variable natoms_in_cylinder equal count(cylinder1)
variable delete_fraction equal (${natoms_in_cylinder}-${natoms})/${natoms_in_cylinder}
variable delete_fraction equal (41820-${natoms})/${natoms_in_cylinder}
variable delete_fraction equal (41820-86.905127829637)/${natoms_in_cylinder}
variable delete_fraction equal (41820-86.905127829637)/41820
set group cylinder1 type 2
  41820 settings made for type
delete_atoms porosity cylinder1 ${delete_fraction} 12345
delete_atoms porosity cylinder1 0.997921924250846 12345
Deleted 41726 atoms, new total = 174274

region cylinder2 cylinder x $(0.5*ly) $(0.5*lz) $(v_R+6) EDGE EDGE units box
region cylinder2 cylinder x 24.012813670346833561 $(0.5*lz) $(v_R+6) EDGE EDGE units box
region cylinder2 cylinder x 24.012813670346833561 24.012813670346833561 $(v_R+6) EDGE EDGE units box
region cylinder2 cylinder x 24.012813670346833561 24.012813670346833561 18 EDGE EDGE units box
region cylinder3 cylinder x $(0.5*ly) $(0.5*lz) $(v_R+9) EDGE EDGE units box
region cylinder3 cylinder x 24.012813670346833561 $(0.5*lz) $(v_R+9) EDGE EDGE units box
region cylinder3 cylinder x 24.012813670346833561 24.012813670346833561 $(v_R+9) EDGE EDGE units box
region cylinder3 cylinder x 24.012813670346833561 24.012813670346833561 21 EDGE EDGE units box
group cylinder2 region cylinder2
54094 atoms in group cylinder2
group cylinder3 region cylinder3
87934 atoms in group cylinder3

group nve region cylinder3
87934 atoms in group nve
group langevin subtract cylinder3 cylinder2
33840 atoms in group langevin
group frozen subtract all cylinder3
86340 atoms in group frozen

region force cylinder x $(0.5*ly) $(0.5*lz) $(v_R-1) EDGE EDGE units box
region force cylinder x 24.012813670346833561 $(0.5*lz) $(v_R-1) EDGE EDGE units box
region force cylinder x 24.012813670346833561 24.012813670346833561 $(v_R-1) EDGE EDGE units box
region force cylinder x 24.012813670346833561 24.012813670346833561 11 EDGE EDGE units box
group gas type 2
94 atoms in group gas

fix nve nve nve
fix langevin langevin langevin 0.50 0.50 1.0 12345 zero yes

variable gascount equal count(gas)

variable dP equal 0.001
variable force equal v_dP/v_rho

velocity all create 0.1 87287
velocity frozen set 0 0 0

compute chunk all chunk/atom bin/cylinder x lower $(lx) $(0.5*ly) $(0.5*lz) 0 $(v_R+3) 80 units box
compute chunk all chunk/atom bin/cylinder x lower 96.051254681387334244 $(0.5*ly) $(0.5*lz) 0 $(v_R+3) 80 units box
compute chunk all chunk/atom bin/cylinder x lower 96.051254681387334244 24.012813670346833561 $(0.5*lz) 0 $(v_R+3) 80 units box
compute chunk all chunk/atom bin/cylinder x lower 96.051254681387334244 24.012813670346833561 24.012813670346833561 0 $(v_R+3) 80 units box
compute chunk all chunk/atom bin/cylinder x lower 96.051254681387334244 24.012813670346833561 24.012813670346833561 0 15 80 units box

compute displacement nve displace/atom
compute mean_displacement nve reduce ave c_displacement[4]

compute vmax all reduce max vx
variable volume equal count(gas)/v_V

thermo_style custom step time temp c_mean_displacement v_volume v_force c_vmax dt spcpu cpuremain
thermo 100

compute keAtom all ke/atom
dump dump all custom 1000 trajectory_l.bin id type x y z c_keAtom

fix flow gas addforce v_force 0.0 0.0
run 5000
No /omp style for force computation currently active
Per MPI rank memory allocation (min/avg/max) = 85.69 | 85.69 | 85.69 Mbytes
Step Time Temp c_mean_displacement v_volume v_force c_vmax Dt S/CPU CPULeft 
       0            0  0.050479708            0 0.0021632786          0.5   0.74915249        0.005            0            0 
     100          0.5  0.064896931  0.053659916 0.0021632786          0.5    1.2491525        0.005     140.6852    34.829582 
     200            1  0.094750605  0.085935192 0.0021632786          0.5    1.7491525        0.005    143.61768    33.770422 
     300          1.5   0.11011479   0.12322819 0.0021632786          0.5    2.2491525        0.005    143.77753     32.94103 
     400            2   0.12254634   0.15517189 0.0021632786          0.5    2.7491525        0.005     138.0529    32.510269 
     500          2.5   0.12979908   0.18397176 0.0021632786          0.5    3.2491525        0.005    139.49822    31.894514 
     600            3   0.13468805   0.20040998 0.0021632786          0.5    3.7491525        0.005    140.30128     31.21497 
     700          3.5   0.14131105   0.20014804 0.0021632786          0.5    4.2491525        0.005    137.82798    30.604506 
     800            4   0.14922855   0.18726055 0.0021632786          0.5    4.7491525        0.005     134.7059    30.053556 
     900          4.5   0.15628044   0.16639495 0.0021632786          0.5    5.2491525        0.005    131.84142    29.533547 
    1000            5   0.16120558   0.14185156 0.0021632786          0.5    5.7488181        0.005    132.09462    28.960028 
    1100          5.5   0.16479179   0.12143224 0.0021632786          0.5    6.2489875        0.005    130.61412    28.383565 
    1200            6   0.16748382   0.11077488 0.0021632786          0.5    6.7527445        0.005    127.98461    27.825389 
    1300          6.5   0.17077659   0.10984483 0.0021632786          0.5    7.4187404        0.005    127.52044    27.240974 
    1400            7    0.1741942   0.11401979 0.0021632786          0.5    7.7082391        0.005    124.97423    26.669101 
    1500          7.5   0.17838836   0.11919243 0.0021632786          0.5    8.2084663        0.005    126.79251    26.040019 
    1600            8   0.18334901    0.1235932 0.0021632786          0.5    8.7061982        0.005    125.04689    25.414379 
    1700          8.5   0.18817209   0.12843931 0.0021632786          0.5    9.2043349        0.005    123.05952    24.793333 
    1800            9   0.19424722   0.13470108 0.0021632786          0.5    9.6666872        0.005    124.13433    24.138494 
    1900          9.5   0.19928842   0.14410526 0.0021632786          0.5    10.166687        0.005    122.32582    23.487217 
    2000           10   0.20431879   0.15602512 0.0021632786          0.5    10.666687        0.005    116.59686     22.87957 
    2100         10.5   0.20750582    0.1697589 0.0021632786          0.5    11.166687        0.005     116.2785    22.251356 
    2200           11   0.20953771   0.18309664 0.0021632786          0.5    11.666687        0.005    117.02586     21.59508 
    2300         11.5   0.21308565   0.19334006 0.0021632786          0.5    12.166687        0.005    117.53301    20.917238 
    2400           12   0.21470113   0.19930503 0.0021632786          0.5    12.666687        0.005    117.77522    20.223085 
    2500         12.5   0.21757202   0.20145106 0.0021632786          0.5    13.192436        0.005    117.32614    19.519788 
    2600           13    0.2189376   0.20095248 0.0021632786          0.5    13.666687        0.005    118.38605    18.797983 
    2700         13.5   0.22146925    0.1985866 0.0021632786          0.5    14.166687        0.005    117.85282    18.070332 
    2800           14   0.22454718    0.1966794 0.0021632786          0.5    14.666687        0.005    117.41071    17.336557 
    2900         14.5    0.2272874   0.19599584 0.0021632786          0.5    15.166687        0.005    113.24427     16.61734 
    3000           15   0.22787127   0.19797558 0.0021632786          0.5    15.666687        0.005    105.72457    15.929073 
    3100         15.5   0.23014757   0.20227987 0.0021632786          0.5    16.447974        0.005    106.53927    15.219754 
    3200           16   0.23249619   0.20920219 0.0021632786          0.5    17.011808        0.005    107.46111    14.491574 
    3300         16.5   0.23568729   0.21766887 0.0021632786          0.5    17.488894        0.005    107.16576    13.752451 
    3400           17   0.23885711   0.22636775 0.0021632786          0.5    17.988894        0.005    106.80987    13.003377 
    3500         17.5   0.24225567   0.23522966 0.0021632786          0.5    23.051286        0.005    106.62697    12.244297 
    3600           18    0.2456372   0.24377012 0.0021632786          0.5    23.551286        0.005    107.21803    11.473274 
    3700         18.5   0.24691754   0.25255464 0.0021632786          0.5    24.051286        0.005    107.34912    10.693113 
    3800           19   0.24909618   0.26163753 0.0021632786          0.5    24.552606        0.005     107.5167    9.9045262 
    3900         19.5   0.25177681   0.27068535 0.0021632786          0.5    20.166687        0.005     107.6285    9.1084106 
    4000           20    0.2542752   0.27977036 0.0021632786          0.5    20.666687        0.005    106.09021    8.3090122 
    4100         20.5   0.25559464   0.28872104 0.0021632786          0.5    21.166687        0.005    106.32044    7.5021809 
    4200           21    0.2569262   0.29730983 0.0021632786          0.5    21.666687        0.005    106.70183    6.6883413 
    4300         21.5   0.25853692   0.30464995 0.0021632786          0.5    22.166687        0.005    106.73795    5.8687132 
    4400           22   0.25997323   0.31043333 0.0021632786          0.5    22.666687        0.005     107.0446    5.0433896 
    4500         22.5   0.26100939   0.31530218 0.0021632786          0.5    23.166524        0.005    106.92134     4.213347 
    4600           23   0.26194821   0.31994653 0.0021632786          0.5    23.665403        0.005    106.79516    3.3788257 
    4700         23.5   0.26315783   0.32466684 0.0021632786          0.5    24.177476        0.005     106.7336    2.5400048 
    4800           24   0.26414323   0.32975787 0.0021632786          0.5     24.65772        0.005    107.02537    1.6969902 
    4900         24.5   0.26662597   0.33628851 0.0021632786          0.5    25.097612        0.005    106.87083     0.850275 
    5000           25    0.2673571   0.34372181 0.0021632786          0.5    25.597612        0.005    106.23741            0 
Loop time of 42.6048 on 4 procs for 5000 steps with 174274 atoms

Performance: 50698.538 tau/day, 117.358 timesteps/s
254.8% CPU use with 1 MPI tasks x 4 OpenMP threads

MPI task timing breakdown:
Section |  min time  |  avg time  |  max time  |%varavg| %total
---------------------------------------------------------------
Pair    | 17.65      | 17.65      | 17.65      |   0.0 | 41.43
Neigh   | 0.75405    | 0.75405    | 0.75405    |   0.0 |  1.77
Comm    | 6.2794     | 6.2794     | 6.2794     |   0.0 | 14.74
Output  | 0.13836    | 0.13836    | 0.13836    |   0.0 |  0.32
Modify  | 14.303     | 14.303     | 14.303     |   0.0 | 33.57
Other   |            | 3.48       |            |       |  8.17

Nlocal:    174274 ave 174274 max 174274 min
Histogram: 1 0 0 0 0 0 0 0 0 0
Nghost:    66615 ave 66615 max 66615 min
Histogram: 1 0 0 0 0 0 0 0 0 0
Neighs:    0 ave 0 max 0 min
Histogram: 1 0 0 0 0 0 0 0 0 0

Total # of neighbors = 0
Ave neighs/atom = 0
Neighbor list builds = 1707
Dangerous builds = 0

reset_timestep 0
fix vx all ave/chunk 10 100000 1000000 chunk vx ave running file velocity_l.txt

fix dt all dt/reset 10 NULL NULL 0.05 units box

run 1000000
No /omp style for force computation currently active
Per MPI rank memory allocation (min/avg/max) = 95.07 | 95.07 | 95.07 Mbytes
Step Time Temp c_mean_displacement v_volume v_force c_vmax Dt S/CPU CPULeft 
       0           25    0.2673571   0.34372181 0.0021632786          0.5    25.597612 0.0019529572            0            0 
     100     25.19463   0.26710366   0.34700737 0.0021632786          0.5    25.792242 0.0019382253    108.51013    9214.8172 
     200    25.387802   0.26858695   0.35037391 0.0021632786          0.5    25.985414 0.0019238218    107.72298    9247.5548 
     300    25.579547   0.26898864   0.35380866 0.0021632786          0.5    26.177159 0.0019097348    107.79742    9255.7121 
     400    25.769898   0.26896782   0.35727489 0.0021632786          0.5    26.367522 0.0018959492    108.35528    9247.3916 
     500    25.958883   0.26998992   0.36037723 0.0021632786          0.5    26.556733 0.0018824432    108.07059    9246.8901 
     600    26.146514   0.26992571   0.36348135 0.0021632786          0.5    26.746002 0.0018691125    106.93942    9262.5505 
     700    26.333001   0.27145339    0.3662564 0.0021632786          0.5    26.814732 0.0018595263    108.48434    9254.4586 
     800    26.518402   0.27151669   0.36897253 0.0021632786          0.5    27.000134 0.0018471477    108.33955    9249.6981 
     900    26.702579   0.27336205   0.37143931 0.0021632786          0.5     27.18431 0.0018350923    107.04242    9258.2067 
    1000    26.885543   0.27292104   0.37433407 0.0021632786          0.5    27.367077 0.0018226375    107.28797    9262.6909 
    1100     27.06726   0.27288062   0.37726793 0.0021632786          0.5    27.548443 0.0018114697     107.6161    9263.6105 
    1200    27.247851   0.27405295   0.37977851 0.0021632786          0.5    27.729034 0.0017998266    108.31725    9259.2138 
    1300    27.427318    0.2747778   0.38230943 0.0021632786          0.5      27.9085 0.0017884017    107.23952    9262.4799 
    1400    27.605642   0.27398441   0.38504782 0.0021632786          0.5    28.086825 0.0017771902    107.30419    9264.7454 
    1500    27.782839   0.27521669   0.38768911 0.0021632786          0.5    28.264021 0.0017661536    107.85625    9263.4093 
    1600    27.958969   0.27574117   0.39026591 0.0021632786          0.5    28.440151 0.0017553365    107.85045    9262.1556 
    1700    28.133995   0.27505205   0.39286586 0.0021632786          0.5    28.615177 0.0017445016     107.1871    9264.3097 
    1800     28.30644   0.27609592   0.39530742 0.0021632786          0.5    28.937506 0.0017176967    109.97181      9253.02 
    1900    28.478169   0.27660669    0.3978258 0.0021632786          0.5    28.993636 0.0017146494    109.15623    9246.3921 
    2000    28.649255   0.27682174   0.40054781 0.0021632786          0.5    29.145079 0.0017059022    107.02799    9249.4256 
    2100    28.819419   0.27584874    0.4033579 0.0021632786          0.5    29.310706 0.0016963782    107.41268    9250.4912 
    2200    28.988622   0.27641847   0.40585753 0.0021632786          0.5    29.479909 0.0016867487    107.97923    9249.1596 
    2300    29.156869   0.27640543   0.40833849 0.0021632786          0.5    29.647858 0.0016772713    108.95666    9244.2596 
    2400    29.324169   0.27672696   0.41082017 0.0021632786          0.5    29.816265 0.0016677221    107.38776    9245.2651 
    2500    29.490512   0.27673432   0.41314164 0.0021632786          0.5    29.992851 0.0016572012    106.60697    9248.8368 
    2600    29.656805   0.27612779   0.41561237 0.0021632786          0.5    30.138048 0.0016589678    107.84962    9247.9154 
    2700    29.822293    0.2765451   0.41799583 0.0021632786          0.5    30.303536 0.0016499089    107.53832     9247.985 
    2800    29.986881   0.27616119    0.4202406 0.0021632786          0.5    30.468125 0.0016409968    107.17885    9249.0941 
    2900    30.150583   0.27669609   0.42234657 0.0021632786          0.5    30.631827 0.0016322276    107.99635    9247.6339 
    3000    30.310867   0.27620627   0.42417421 0.0021632786          0.5    30.792111 0.0015400987     108.3695    9245.1497 
    3100    30.464662   0.27662579   0.42575869 0.0021632786          0.5    30.945906 0.0015371975    108.14505    9243.3822 
    3200    30.618263   0.27689603   0.42745061 0.0021632786          0.5    31.099507   0.00153363    108.61548    9240.4198 
    3300    30.774986   0.27647677    0.4291595 0.0021632786          0.5    31.256259 0.0015996215    108.84531     9236.994 
    3400    30.934581   0.27623993   0.43065236 0.0021632786          0.5    31.415929 0.0015914922    106.81583    9238.8322 
    3500    31.093369   0.27543485   0.43215125 0.0021632786          0.5    31.576064 0.0015834177    107.29453    9239.3227 
    3600     31.25134   0.27621812   0.43344326 0.0021632786          0.5    31.737325 0.0015753737     107.2701     9239.793 
    3700    31.408527    0.2757308   0.43471147 0.0021632786          0.5    31.894512 0.0015676103    107.66546    9239.2653 
    3800    31.564943   0.27637492   0.43556307 0.0021632786          0.5    32.050928 0.0015599606    107.99021    9237.9849 
    3900    31.720589   0.27607743   0.43670091 0.0021632786          0.5    32.206574 0.0015522804    107.62292    9237.5295 
    4000    31.875481   0.27582892   0.43808801 0.0021632786          0.5    32.361466 0.0015448311    106.84903    9238.7262 
    4100    32.029648   0.27595366   0.43944262 0.0021632786          0.5    32.515633 0.0015376676    108.30106    9236.7709 
    4200    32.183089   0.27579838   0.44080382 0.0021632786          0.5    32.669074 0.0015304459    107.22447    9237.0628 
    4300    32.335812   0.27690981   0.44193312 0.0021632786          0.5    32.821798 0.0015233251    107.57072    9236.6027 
    4400    32.487828   0.27553041   0.44333737 0.0021632786          0.5    32.973813 0.0015163028    107.88521     9235.508 
    4500    32.639146   0.27622725   0.44463547 0.0021632786          0.5    33.125131 0.0015093767    107.73529    9234.7062 
    4600    32.789775   0.27579152    0.4457566 0.0021632786          0.5    33.275761 0.0015025446    108.90695     9231.738 
    4700    32.939725   0.27627055   0.44666249 0.0021632786          0.5    33.425711 0.0014958045    108.58741    9229.4292 
    4800    33.089006   0.27640215   0.44782845 0.0021632786          0.5    33.574991 0.0014891544    106.69649    9230.5623 
    4900    33.237625   0.27554767   0.44910037 0.0021632786          0.5    33.724964 0.0014825301     108.9852    9227.6135 
    5000    33.385614   0.27553619   0.45056675 0.0021632786          0.5    33.859526 0.0014766503    106.97326    9228.1802 
    5100    33.532991   0.27583248   0.45196473 0.0021632786          0.5    34.006902 0.0014702512    106.65028    9229.2403 
    5200    33.679727   0.27557795   0.45339845 0.0021632786          0.5    34.117246 0.0014655292    106.98069    9229.6697 
    5300    33.826515    0.2756081   0.45478762 0.0021632786          0.5    34.121055 0.0014649706     108.3412    9227.8445 
    5400    33.972725   0.27619483   0.45632869 0.0021632786          0.5    34.268823 0.0014586253    106.84502    9228.4333 
    5500    34.118313   0.27495644   0.45796312 0.0021632786          0.5    34.414349 0.0014524184    107.22549    9228.3662 
    5600    34.263276   0.27587501   0.45928902 0.0021632786          0.5    34.557171 0.0014464877    109.07862    9225.4547 
    5700    34.407655   0.27489741   0.46075025 0.0021632786          0.5    34.701455 0.0014404258    96.757475    9242.9775 
    5800    34.551433   0.27586388   0.46212963 0.0021632786          0.5    34.844312 0.0014344597    107.23503     9242.551 
    5900    34.694596   0.27385513    0.4636267 0.0021632786          0.5    34.990682  0.001428317    110.64272     9237.268 
    6000    34.837175   0.27500237   0.46463717 0.0021632786          0.5    35.125225 0.0014226529    107.79986    9236.0797 
    6100    34.979179   0.27628465   0.46584002 0.0021632786          0.5    35.271077 0.0014166188    117.76691    9222.1077 
    6200    35.120579   0.27373236   0.46742652 0.0021632786          0.5    35.418705 0.0014104859    117.53712    9208.8255 
    6300      35.2614   0.27555069   0.46867086 0.0021632786          0.5    35.526894   0.00140674    119.51242    9193.7197 
    6400    35.401719   0.27463273   0.47006709 0.0021632786          0.5     35.71423 0.0013999023    119.39872    9179.1837 
    6500    35.541604   0.27496821    0.4712714 0.0021632786          0.5    35.453038 0.0013934424    116.90097    9167.8043 
    6600    35.680745   0.27430822   0.47256344 0.0021632786          0.5    35.590344 0.0013886958    116.89794     9156.747 
    6700    35.819384   0.27488912    0.4738964 0.0021632786          0.5    35.728646 0.0013835384    117.12619    9145.7473 
    6800    35.957504   0.27361214   0.47521025 0.0021632786          0.5    35.866555 0.0013783427    115.52746    9136.7715 
    6900     36.09509   0.27486848   0.47635364 0.0021632786          0.5    36.019712 0.0013728091    117.37201     9126.073 
    7000    36.232147   0.27410972   0.47750288 0.0021632786          0.5    36.155371 0.0013677873    116.06408    9117.0181 
    7100    36.368699   0.27470134   0.47849697 0.0021632786          0.5    36.291923 0.0013627523     114.3945     9109.952 
    7200     36.50475   0.27497848   0.47948377 0.0021632786          0.5    36.428031 0.0013577897    116.61657    9100.7615 
    7300    36.640307   0.27405889   0.48053283 0.0021632786          0.5    36.563588  0.001352863    116.72984    9091.6861 
    7400    36.775368   0.27350841   0.48161291 0.0021632786          0.5    36.707653 0.0013476466    115.40479    9084.1521 
    7500    36.911433    0.2747866   0.48240847 0.0021632786          0.5    36.578195 0.0013617904    117.83434    9074.4315 
    7600    37.047383   0.27364105    0.4833958 0.0021632786          0.5     36.71297 0.0013567766    117.68599    9065.0842 
    7700    37.182837    0.2744728   0.48456774 0.0021632786          0.5    36.848653 0.0013517989    117.42117    9056.2047 
    7800    37.317797   0.27410283   0.48584589 0.0021632786          0.5    36.982969 0.0013468858    117.57142    9047.3925 
    7900    37.452252   0.27394858   0.48699901 0.0021632786          0.5    37.113306 0.0013419577    117.89824    9038.4857 
    8000    37.586214   0.27434617   0.48832728 0.0021632786          0.5    37.256518 0.0013366577    112.49403    9034.8331 
    8100    37.720539   0.27415579   0.48968343 0.0021632786          0.5    37.053727 0.0013399421    116.94171    9027.1084 
    8200    37.855159   0.27454756   0.49094218 0.0021632786          0.5    37.188347 0.0013444564    117.23671    9019.2912 
    8300    37.989386   0.27411708   0.49222324 0.0021632786          0.5    37.322574 0.0013396216    117.22233    9011.6543 
    8400    38.123133    0.2744364   0.49352843 0.0021632786          0.5    37.456321 0.0013348385    116.62676     9004.693 
    8500    38.256403   0.27390149   0.49502141 0.0021632786          0.5    37.589591 0.0013301063    115.73137    8998.6493 
    8600    38.389203   0.27283141   0.49638797 0.0021632786          0.5    37.722391 0.0013254241    117.25762    8991.4294 
    8700    38.521536   0.27289134   0.49752356 0.0021632786          0.5    37.854724  0.001320791    117.13744    8984.4557 
    8800    38.653406   0.27368493   0.49861113 0.0021632786          0.5    37.987016 0.0013161942    117.20471    8977.5658 
    8900    38.784824   0.27283813   0.49978822 0.0021632786          0.5    38.117387  0.001311692    117.78689    8970.3419 
    9000    38.915789   0.27234806   0.50095407 0.0021632786          0.5    38.248673 0.0013071899     116.5144    8964.2808 
    9100    39.046308   0.27212182   0.50207679 0.0021632786          0.5    38.379191 0.0013027448    113.76759    8960.5903 
    9200    39.176384    0.2729566   0.50289972 0.0021632786          0.5    38.509267 0.0012983447    116.57703    8954.6797 
    9300    39.306022   0.27249676   0.50385098 0.0021632786          0.5    38.638905 0.0012939889    117.10601    8948.4649 
    9400    39.435226   0.27219874    0.5048325 0.0021632786          0.5     38.76811 0.0012896766    116.07622    8943.1626 
    9500    39.563994   0.27203525   0.50569913 0.0021632786          0.5    38.898782 0.0012853454     117.0546     8937.203 
    9600    39.692343    0.2716219   0.50663621 0.0021632786          0.5    39.025186 0.0012811791    117.54819    8930.9797 
    9700    39.820272   0.27170149   0.50741766 0.0021632786          0.5    39.153187 0.0012769908    116.15414    8925.9095 
    9800    39.947784   0.27232036   0.50822964 0.0021632786          0.5    39.280862  0.001272841     114.8049    8921.9474 
    9900    40.074883   0.27103901   0.50917932 0.0021632786          0.5    39.407961 0.0012687361    117.23026    8916.2456 
   10000    40.201573   0.27130345   0.51003404 0.0021632786          0.5    39.534651 0.0012646707    113.78441    8913.1984 
   10100    40.327858   0.27069965   0.51074516 0.0021632786          0.5    39.660937 0.0012606441    115.47558    8908.9325 
   10200    40.453743   0.27086291   0.51139609 0.0021632786          0.5    39.786822 0.0012566557    117.13688    8903.5414 
   10300    40.579218   0.27094875   0.51206608 0.0021632786          0.5    39.910174 0.0012527739    117.00833    8898.3286 
   10400    40.704319    0.2705165   0.51289781 0.0021632786          0.5    40.035341 0.0012488559    116.88524    8893.2851 
   10500     40.82903   0.27052101   0.51361212 0.0021632786          0.5    40.160052  0.001244978    117.12455    8888.1569 
   10600    40.953354    0.2705818   0.51437978 0.0021632786          0.5    40.284377  0.001241136    116.93187    8883.2405 
   10700    41.077296   0.26968547   0.51536928 0.0021632786          0.5    40.408319 0.0012373294    116.31275     8878.821 
   10800    41.200859   0.26896123   0.51615802 0.0021632786          0.5    40.531882 0.0012335576    116.83402    8874.1159 
   10900    41.324046    0.2705899   0.51675772 0.0021632786          0.5    40.655069 0.0012298201    116.45306    8869.7356 
   11000    41.446861   0.26904215   0.51746925 0.0021632786          0.5    40.777971 0.0012261138    115.85835    8865.8157 
   11100    41.569307   0.26905973   0.51806322 0.0021632786          0.5    40.900408 0.0012224435    116.22083     8861.711 
   11200    41.691388    0.2704317   0.51864126 0.0021632786          0.5    41.022489 0.0012188058    115.07174    8858.4228 
   11300    41.813106   0.26985517   0.51927153 0.0021632786          0.5    41.144207 0.0012152004    117.17985    8853.8095 
   11400    41.934465   0.26929808   0.51996658 0.0021632786          0.5    41.265566 0.0012116268    117.81726    8848.8617 
   11500    42.055468   0.26882378   0.52060054 0.0021632786          0.5    41.386569 0.0012080846    117.44809    8844.2146 
   11600    42.176118   0.26914238   0.52097831 0.0021632786          0.5    41.507249  0.001204572    117.92552    8839.3393 
   11700    42.296422   0.26813996   0.52142056 0.0021632786          0.5    41.619552 0.0012013117    117.70009    8834.6699 
   11800    42.416397   0.26914937   0.52189503 0.0021632786          0.5    41.739528  0.001197859    116.17396         8831 
   11900    42.536029   0.26977264   0.52237559 0.0021632786          0.5    41.859159 0.0011944358    117.09767    8826.8135 
   12000     42.65532    0.2691721   0.52312581 0.0021632786          0.5     41.97845 0.0011910418    117.13181     8822.662 
   12100    42.774273   0.26878872   0.52412954 0.0021632786          0.5    42.096488 0.0011877028     114.3125    8820.2841 
   12200    42.892893   0.26856194   0.52499365 0.0021632786          0.5    42.215108 0.0011843657    116.81616    8816.4129 
   12300    43.011181   0.26819851   0.52588282 0.0021632786          0.5    42.333396 0.0011810566    117.41883    8812.2378 
   12400    43.129135   0.26820055   0.52661706 0.0021632786          0.5     42.45582 0.0011776562    117.14624    8808.2742 
   12500    43.246751   0.26815024   0.52739242 0.0021632786          0.5    42.571529 0.0011744616    117.48728    8804.1646 
   12600    43.364052   0.26849424   0.52806777 0.0021632786          0.5     42.68883 0.0011712346    116.89644    8800.4438 
   12700    43.481031   0.26936837   0.52878401 0.0021632786          0.5    42.805809  0.001168034    116.31059     8797.103 
   12800    43.597692   0.26865097   0.52960017 0.0021632786          0.5     42.92247 0.0011648596    117.44283    8793.1618 
   12900    43.714036   0.26803469   0.53030968 0.0021632786          0.5    43.038814 0.0011617108    117.80257    8789.0697 
   13000    43.830066   0.26842428   0.53112357 0.0021632786          0.5    43.154844 0.0011585875    113.99219    8787.1816 
   13100    43.945785   0.26825256   0.53202846 0.0021632786          0.5    43.270689 0.0011554858    116.93307    8783.6469 
   13200    44.061196    0.2682433   0.53291086 0.0021632786          0.5    43.384937 0.0011524439    117.43856    8779.8776 
   13300    44.176303    0.2676128   0.53396913 0.0021632786          0.5    43.500044 0.0011493945    117.39103    8776.1778 
   13400    44.291106   0.26744137   0.53498023 0.0021632786          0.5      43.6148 0.0011463704    117.16008    8772.6441 
   13500    44.405608   0.26711187   0.53597983 0.0021632786          0.5    43.729302 0.0011433689    116.82338    8769.3298 
   13600    44.519811   0.26699348   0.53689913 0.0021632786          0.5    43.843505 0.0011403908    116.68324    8766.1263 
   13700    44.633717   0.26782067   0.53765256 0.0021632786          0.5    43.957411 0.0011374359    117.08604    8762.7448 
   13800    44.747328   0.26790738   0.53843978 0.0021632786          0.5    44.071022 0.0011345038    114.18938    8760.9481 
   13900    44.860647   0.26727635   0.53927175 0.0021632786          0.5    44.184341 0.0011315943    116.49948    8757.9329 
   14000    44.973677   0.26772838   0.54005917 0.0021632786          0.5    44.297371 0.0011287071    116.30462    8755.0497 
   14100    45.086418   0.26695107    0.5410519 0.0021632786          0.5    44.410112 0.0011258418    117.12743    8751.7728 
   14200    45.198874   0.26677496   0.54194694 0.0021632786          0.5    44.522568 0.0011229983    117.03572    8748.5766 
   14300    45.311047   0.26679762   0.54275135 0.0021632786          0.5    44.634741 0.0011201762     117.3888    8745.2359 
   14400    45.422938    0.2673674   0.54337029 0.0021632786          0.5    44.746989 0.0011173663    118.26467     8741.498 
   14500     45.53455   0.26751738   0.54399245 0.0021632786          0.5    44.858192 0.0011145972    117.36111    8738.2425 
   14600    45.645885   0.26717862   0.54480278 0.0021632786          0.5    44.969594 0.0011118359    118.42114     8734.505 
   14700     45.75694   0.26744588    0.5456876 0.0021632786          0.5    45.081695 0.0011090685    118.11507    8730.9537 
   14800    45.867724   0.26761912    0.5463956 0.0021632786          0.5     45.19248 0.0011063499    115.91566    8728.5082 
   14900    45.978238   0.26683983   0.54703891 0.0021632786          0.5    45.302993 0.0011036511    114.03471    8727.0248 
   15000    46.088482   0.26746338   0.54764923 0.0021632786          0.5    45.413238 0.0011009721    115.73418    8724.7038 
   15100    46.198459   0.26751166   0.54834253 0.0021632786          0.5    45.523215 0.0010983124    116.05088    8722.2483 
   15200    46.308172   0.26821146    0.5490259 0.0021632786          0.5    45.632927  0.001095672    116.91942    8719.3991 
   15300    46.417621   0.26808225    0.5497542 0.0021632786          0.5    45.742376 0.0010930504    117.42409    8716.3395 
   15400    46.526808    0.2668694   0.55048265 0.0021632786          0.5    45.851564 0.0010904477    117.70894    8713.1766 
   15500    46.635737   0.26773899   0.55098926 0.0021632786          0.5    45.960492 0.0010878634    118.35328    8709.7499 
   15600    46.744407   0.26857549   0.55137972 0.0021632786          0.5    46.069163 0.0010852974    118.63524    8706.2296 
   15700    46.852822   0.26962072   0.55175417 0.0021632786          0.5    46.177578 0.0010827495    117.19426    8703.3931 
   15800    46.960983    0.2677703   0.55238342 0.0021632786          0.5    46.285739 0.0010802194    118.08328    8700.1816 
   15900    47.068892   0.26763709   0.55300236 0.0021632786          0.5    46.393648  0.001077707    117.69385    8697.1733 
   16000     47.17655   0.26878389   0.55362908 0.0021632786          0.5    46.501356 0.0010752109    116.33278    8694.8033 
   16100     47.28396   0.26797342   0.55450202 0.0021632786          0.5    46.608765 0.0010727332     118.3953    8691.5369 
   16200    47.391122    0.2673625   0.55549632 0.0021632786          0.5    46.715928 0.0010702726    117.01421    8688.9058 
   16300    47.498039   0.26660588   0.55625886 0.0021632786          0.5    46.822845 0.0010678288    117.64681    8686.0192 
   16400    47.604713   0.26839802   0.55689063 0.0021632786          0.5    46.929461 0.0010654028    118.27825    8682.8853 
   16500    47.711144   0.26820615   0.55763046 0.0021632786          0.5    47.035899 0.0010629919    117.95762    8679.9161 
   16600    47.817335   0.26733384   0.55832803 0.0021632786          0.5    47.142217 0.0010605945    115.57661     8678.007 
   16700    47.923287   0.26769673   0.55888816 0.0021632786          0.5     47.24817 0.0010582162    117.30809    8675.3586 
   16800    48.029002   0.26793175    0.5594108 0.0021632786          0.5    47.353885 0.0010558539    115.36768    8673.5706 
   16900    48.134482    0.2677378   0.56008413 0.0021632786          0.5     47.45958 0.0010535021    116.38408    8671.3532 
   17000    48.239706   0.26733528   0.56067644 0.0021632786          0.5    47.567173 0.0010511243    115.03535    8669.7343 
   17100    48.344715   0.26731538   0.56122956 0.0021632786          0.5     47.67156 0.0010488219      116.373    8667.5498 
   17200    48.449493   0.26719365   0.56186218 0.0021632786          0.5    47.776336 0.0010465218    115.16742    8665.8947 
   17300    48.554043   0.26725105   0.56254363 0.0021632786          0.5    47.880885 0.0010442368    117.12004    8663.4263 
   17400    48.658354   0.26800821    0.5632482 0.0021632786          0.5    47.983482 0.0010420042    117.21692    8660.9367 
   17500    48.762458   0.26676697   0.56396349 0.0021632786          0.5    48.084397 0.0010398125     116.0027    8658.9671 
   17600    48.866338   0.26715071   0.56457418 0.0021632786          0.5    48.188277 0.0010375711    117.06832    8656.5722 
   17700    48.969995   0.26806555   0.56507682 0.0021632786          0.5    48.292777 0.0010353259    116.61563    8654.3786 
   17800    49.073429   0.26760816    0.5657608 0.0021632786          0.5    48.395666 0.0010331256    116.27486    8652.3387 
   17900    49.176642   0.26713211   0.56635699 0.0021632786          0.5     48.49888  0.001030927    117.11536    8649.9734 
   18000    49.279636   0.26744404   0.56687233 0.0021632786          0.5    48.601943 0.0010287411    116.04536    8648.0544 
   18100    49.382413   0.26727299   0.56738373 0.0021632786          0.5     48.70463 0.0010265721    116.05544     8646.143 
   18200    49.484973   0.26758812   0.56774477 0.0021632786          0.5     48.80719  0.001024415     117.6889     8643.598 
   18300    49.587318   0.26772934   0.56820958 0.0021632786          0.5    48.909535 0.0010222715    117.63915    8641.0908 
   18400    49.689449   0.26702537   0.56872394 0.0021632786          0.5    49.011667 0.0010201414    117.01094    8638.8451 
   18500    49.791368   0.26737748   0.56918769 0.0021632786          0.5    49.113585 0.0010180245    116.99573    8636.6203 
   18600    49.893075   0.26731222   0.56970166 0.0021632786          0.5    49.215386 0.0010159187    116.96617    8634.4216 
   18700    49.994572   0.26790284    0.5702373 0.0021632786          0.5    49.317194 0.0010138214    116.42801    8632.4448 
   18800     50.09586   0.26771922   0.57084793 0.0021632786          0.5    49.418518 0.0010117428    115.29199    8630.9215 
   18900    50.196942    0.2674589   0.57140487 0.0021632786          0.5    49.519562 0.0010096785    115.49116    8629.3274 
   19000    50.297817   0.26822296   0.57200746 0.0021632786          0.5    49.620437  0.001007626    114.06839    8628.2987 
   19100    50.398488   0.26665965   0.57279435 0.0021632786          0.5    49.721108 0.0010055859    115.99905    8626.5222 
   19200    50.498955   0.26684516   0.57351019 0.0021632786          0.5    49.821814 0.0010035532    117.23743    8624.2901 
   19300     50.59922   0.26715846   0.57405492 0.0021632786          0.5    49.921848 0.0010015424    116.87732    8622.2059 
   19400    50.699284   0.26757986   0.57463871 0.0021632786          0.5    50.021912 0.00099953901    117.88031    8619.7662 
   19500    50.799148   0.26704537   0.57528176 0.0021632786          0.5    50.121777 0.00099754759    117.64763    8617.4272 
   19600    50.898814   0.26646359   0.57594637 0.0021632786          0.5    50.219009 0.0009956161    115.66241    8615.8333 
   19700    50.998286   0.26667366   0.57660464 0.0021632786          0.5    50.318424 0.00099364907     117.2971    8613.6472 
   19800    51.097563   0.26780081   0.57703228 0.0021632786          0.5    50.417845 0.0009916896    117.87378     8611.268 
   19900    51.196643   0.26735716   0.57758993 0.0021632786          0.5    50.524664 0.00098959464    116.56955    8609.3718 
   20000    51.295526   0.26651205   0.57812364 0.0021632786          0.5    50.615781 0.00098781265    115.72508    8607.7926 
   20100    51.394221   0.26736916   0.57866675 0.0021632786          0.5    50.714476 0.00098589037    115.31392    8606.3708 
   20200    51.492724   0.26731497   0.57921127 0.0021632786          0.5    50.812979 0.00098397927    116.58695    8604.4951 
   20300    51.591036   0.26668995   0.57974104 0.0021632786          0.5    50.911291 0.00098207923    117.11808    8602.4418 
   20400    51.689159   0.26775852   0.58026948 0.0021632786          0.5    51.009414 0.00098019013    117.92886    8600.1183 
   20500    51.787094    0.2667619   0.58094228 0.0021632786          0.5    51.107349 0.00097831192    116.64962    8598.2536 
   20600    51.884841   0.26680254   0.58166075 0.0021632786          0.5    51.205096 0.00097644447    116.82175    8596.3385 
   20700    51.982402   0.26655529    0.5822699 0.0021632786          0.5    51.302929 0.00097458236    115.81929    8594.7842 
   20800    52.079777   0.26644033   0.58284076 0.0021632786          0.5    51.400034 0.00097274161    116.26542    8593.0807 
   20900    52.176968   0.26654319   0.58339194 0.0021632786          0.5    51.497228 0.00097090576    115.47132    8591.6623 
   21000    52.273977   0.26660169   0.58404307 0.0021632786          0.5    51.594234 0.00096908037    116.06341    8590.0431 
   21100    52.370803   0.26562375   0.58470853 0.0021632786          0.5     51.69106 0.00096726519    111.98571    8589.8867 
   21200    52.467448   0.26678511   0.58525309 0.0021632786          0.5    51.787705 0.00096546017    115.90481    8588.3292 
   21300    52.563913   0.26621154   0.58590997 0.0021632786          0.5     51.88417 0.00096366523    117.13427    8586.3622 
   21400    52.660199    0.2656797   0.58661347 0.0021632786          0.5    51.980456 0.00096188025    115.79719    8584.8564 
   21500    52.756307   0.26600894   0.58714649 0.0021632786          0.5    52.078513 0.00096006705    117.18958    8582.8895 
   21600    52.852219   0.26659015   0.58771737 0.0021632786          0.5    52.183211 0.00095814621     117.8256    8580.7244 
   21700    52.947955   0.26604953   0.58843383 0.0021632786          0.5    52.278922 0.00095639212    117.21175    8578.7717 
   21800    53.043515   0.26658467   0.58899022 0.0021632786          0.5    52.374482 0.00095464718    118.05732    8576.5549 
   21900    53.138902   0.26596887   0.58961807 0.0021632786          0.5    52.469873 0.00095291171    116.54075     8574.843 
   22000    53.234115   0.26637648   0.59021094 0.0021632786          0.5    52.563569 0.00095121305     112.8286    8574.3938 
   22100     53.32916   0.26656901   0.59083518 0.0021632786          0.5    52.658347 0.0009495007     116.5701    8572.6819 
   22200    53.424032   0.26631206   0.59158874 0.0021632786          0.5    52.756422 0.0009477331    117.34308    8570.7288 
   22300    53.518729   0.26600656   0.59232686 0.0021632786          0.5     52.85009 0.00094605672    116.88442    8568.9322 
   22400    53.613258   0.26517412   0.59303533 0.0021632786          0.5    52.945221 0.00094435681    118.09608    8566.7608 
   22500    53.707619   0.26626011   0.59358718 0.0021632786          0.5    53.038969 0.0009426878    117.89297    8564.6647 
   22600    53.801812   0.26643909   0.59408788 0.0021632786          0.5    53.133164 0.00094101659    117.29878    8562.7654 
   22700    53.895839   0.26563631   0.59460569 0.0021632786          0.5    53.227196 0.00093935432     117.0549    8560.9519 
   22800      53.9897    0.2662864   0.59506097 0.0021632786          0.5    53.321057 0.00093770082    117.10614    8559.1306 
   22900    54.083396   0.26711126   0.59541799 0.0021632786          0.5    53.414753 0.00093605604    114.91785    8558.0117 
   23000    54.176928    0.2666453   0.59594294 0.0021632786          0.5    53.508285 0.00093441987    116.55487    8556.3758 
   23100    54.279291   0.26738924   0.59655783 0.0021632786          0.5    37.107662 0.0011598411    117.03791    8554.5968 
   23200    54.395155   0.26512535   0.59730251 0.0021632786          0.5    37.223526 0.0011571629    117.01995    8552.8314 
   23300    54.510751   0.26607111   0.59787026 0.0021632786          0.5    37.339122 0.0011545011    116.44818    8551.2496 
   23400    54.626082   0.26659256   0.59843414 0.0021632786          0.5    37.454453 0.0011518554    115.48731    8549.9722 
   23500    54.741149   0.26692205   0.59912046 0.0021632786          0.5     37.56952 0.0011492258    117.03327    8548.2231 
   23600    54.855954   0.26686791   0.59976615 0.0021632786          0.5    37.684325 0.0011466122     114.7435    8547.1869 
   23700    54.970498   0.26667143   0.60048821 0.0021632786          0.5    37.798617 0.0011440095    116.56657    8545.5907 
   23800    55.085717   0.26705508   0.60119933 0.0021632786          0.5    23.336822 0.0013605034    116.55827    8544.0032 
   23900    55.221762   0.26713982   0.60207338 0.0021632786          0.5    23.472726 0.0013608207    120.50094    8541.2754 
   24000    55.357873   0.26598591   0.60314538 0.0021632786          0.5    23.608391 0.0013614476    121.18847    8538.3719 
   24100    55.512616   0.26564706   0.60449272 0.0021632786          0.5    19.370398 0.0018221218    118.87946    8536.1346 
   24200    55.694764   0.26619752   0.60563567 0.0021632786          0.5    19.552229 0.0018206776     115.8652    8534.7913 
   24300    55.880448   0.26530809   0.60690388 0.0021632786          0.5    19.737914  0.002150063    117.58675    8532.9446 
   24400    56.112266   0.26555681   0.60845699 0.0021632786          0.5    19.969732 0.0023781715    118.09332    8530.9602 
   24500    56.349162   0.26563271   0.61006067 0.0021632786          0.5    20.206628 0.0023577663    114.67627    8529.9897 
   24600    56.584046   0.26619621   0.61176229 0.0021632786          0.5    20.441512  0.002340065    117.14922    8528.2902 
   24700     56.81717    0.2664783   0.61308362 0.0021632786          0.5    20.674636 0.0023204415     117.6605     8526.451 
   24800    57.048342   0.26546311   0.61451011 0.0021632786          0.5    20.905807 0.0023011161    117.22161    8524.7449 
   24900    57.277597   0.26446654   0.61608704 0.0021632786          0.5    21.135063  0.002282164    117.93914    8522.8424 
   25000    57.504816   0.26556011   0.61718824 0.0021632786          0.5    21.361541 0.0022605025    117.44408    8521.0878 
   25100     57.72987   0.26526136   0.61820934 0.0021632786          0.5    21.588036 0.0022382578    115.25676     8519.968 
   25200    57.952542   0.26589076   0.61916201 0.0021632786          0.5    21.773089 0.0022148859    115.10395    8518.8948 
   25300    58.176312   0.26620677   0.62005956 0.0021632786          0.5    19.222304 0.0023529353    118.51149    8516.8608 
   25400    58.410544     0.266145   0.62140224 0.0021632786          0.5    19.459594  0.002329602    116.11703    8515.5038 
   25500    58.642481   0.26571146   0.62294713 0.0021632786          0.5     19.69153 0.0023069748    117.93818    8513.6425 
   25600    58.872182   0.26562712   0.62414077 0.0021632786          0.5    19.921232 0.0022849502    118.08032    8511.7503 
   25700    59.101419   0.26577481   0.62495006 0.0021632786          0.5    19.684523 0.0023494429    118.04397    8509.8761 
   25800    59.335725   0.26578247   0.62571103 0.0021632786          0.5    20.605636 0.0023251383    117.06561    8508.2772 
   25900    59.567142   0.26492371   0.62669205 0.0021632786          0.5    20.787257 0.0023054565    117.75247    8506.4966 
   26000    59.796659   0.26613141   0.62741111 0.0021632786          0.5    20.293648 0.0023347041    116.31085    8505.1175 
   26100     60.02686    0.2651378   0.62873283 0.0021632786          0.5    18.456142 0.0022867283    116.27125    8503.7533 
   26200    60.254687   0.26505432   0.63010339 0.0021632786          0.5    18.676341 0.0022674026     117.1882    8502.1429 
   26300    60.480477   0.26527266    0.6313912 0.0021632786          0.5    18.894011 0.0022470028    115.76274    8500.9272 
   26400    60.741321   0.26643109   0.63264874 0.0021632786          0.5    15.352521 0.0029376808    117.73944    8499.1793 
   26500    61.035179   0.26515204   0.63434162 0.0021632786          0.5    15.646379 0.0029394764    122.25686    8496.2854 
   26600    61.328874   0.26407552   0.63577404 0.0021632786          0.5    15.940074 0.0030154095    119.09837    8494.2008 
   26700    61.628078   0.26349032   0.63745721 0.0021632786          0.5    16.239279  0.002963959    117.89396    8492.4383 
   26800    61.922251   0.26360157   0.63946322 0.0021632786          0.5    16.533451 0.0029149927    117.26228    8490.8485 
   26900    62.211632   0.26284605   0.64127526 0.0021632786          0.5    16.822832 0.0028683199     115.4689    8489.7433 
   27000    62.496442    0.2638805   0.64257795 0.0021632786          0.5    17.107643 0.0028237697    116.07837    8488.4761 
   27100    62.776884   0.26342282   0.64411195 0.0021632786          0.5    17.386292 0.0027811176    114.14678    8487.7352 
   27200    63.052984   0.26433716   0.64544688 0.0021632786          0.5     17.63853 0.0027374802    117.29228     8486.153 
   27300    63.341931   0.26332029     0.646456 0.0021632786          0.5    15.906788    0.0028588    117.75124    8484.4578 
   27400    63.626094   0.26339073   0.64778172 0.0021632786          0.5    16.190951 0.0028210299    117.85308    8482.7427 
   27500    63.906574   0.26369388   0.64897423 0.0021632786          0.5    16.453965  0.002785153    117.38538    8481.1534 
   27600     64.18311   0.26367227   0.65013302 0.0021632786          0.5    16.724072 0.0027434437    116.51019     8479.795 
   27700    64.455953   0.26314287   0.65162239 0.0021632786          0.5     17.06925 0.0027100755    115.92938    8478.5911 
   27800    64.725487   0.26356811   0.65294053 0.0021632786          0.5    17.334596 0.0026772206    117.35395    8477.0235 
   27900    64.991975   0.26327161    0.6546009 0.0021632786          0.5    16.469855 0.0026437147    117.52332    8475.4182 
   28000    65.269789   0.26331476   0.65631357 0.0021632786          0.5    15.486378 0.0028053469    118.26454    8473.6332 
   28100     65.54967   0.26335322   0.65817142 0.0021632786          0.5    15.766258 0.0027907346    116.83923    8472.2116 
   28200    65.828112   0.26390892   0.66000479 0.0021632786          0.5    16.044095  0.002779892    118.00259    8470.5032 
   28300    66.105425   0.26267143   0.66180366 0.0021632786          0.5    16.320863  0.002764789    111.56093    8470.4811 
   28400    66.383192   0.26396178   0.66318347 0.0021632786          0.5     16.59863 0.0028402477    113.03473     8470.053 
   28500    66.665298   0.26392872   0.66483238 0.0021632786          0.5    16.880735 0.0027979321    117.36771    8468.5083 
   28600    66.943252   0.26397211   0.66591625 0.0021632786          0.5     17.15869 0.0027573832    117.19773    8467.0105 
   28700    67.217227   0.26383698   0.66737578 0.0021632786          0.5    17.432664 0.0027184844    117.51486    8465.4392 
   28800    67.487382   0.26420693   0.66906781 0.0021632786          0.5     17.70282 0.0026811293    117.54378    8463.8659 
   28900    67.753849   0.26441833   0.67048202 0.0021632786          0.5    17.968615 0.0026437046    117.06244    8462.4151 
   29000    68.025198   0.26365516   0.67221328 0.0021632786          0.5    15.601319 0.0027515199    118.42335    8460.6397 
   29100    68.298962   0.26371186   0.67357451 0.0021632786          0.5    15.869674 0.0027186616    116.37013    8459.3678 
   29200    68.569283   0.26298957   0.67510745 0.0021632786          0.5    16.139995   0.00268454     117.6612    8457.7852 
   29300    68.836242   0.26403736   0.67643672 0.0021632786          0.5     16.40733 0.0026515155    117.75829    8456.1845 
   29400    69.099948   0.26386345    0.6782609 0.0021632786          0.5    16.671036 0.0026195793    117.11974    8454.7417 
   29500    69.360487   0.26346376   0.67986261 0.0021632786          0.5     16.95051  0.002588693    117.61718    8453.1841 
   29600    69.618109   0.26379954   0.68102829 0.0021632786          0.5    17.203888 0.0025599757    118.05928    8451.5268 
   29700    69.872543   0.26376573   0.68231291 0.0021632786          0.5    14.404959 0.0030141264    116.83705    8450.1646 
   29800    70.166936    0.2641815   0.68383943 0.0021632786          0.5    14.707112 0.0029400722    122.66432    8447.4819 
   29900     70.46118   0.26283237   0.68564812 0.0021632786          0.5    15.001292 0.0029430947    122.72196    8444.7994 
   30000    70.761836   0.26300432   0.68740067 0.0021632786          0.5    15.297533 0.0030414226    118.75835    8443.0086 
   30100    71.068582   0.26248858   0.68925799 0.0021632786          0.5     14.83102 0.0030797092    119.41711    8441.0744 
   30200    71.374901   0.26322119   0.69078942 0.0021632786          0.5    15.137339 0.0030431269     116.9908    8439.7052 
   30300    71.677593   0.26382609   0.69249514 0.0021632786          0.5     15.44003 0.0030072259    117.10137    8438.3136 
   30400    71.976681   0.26362645   0.69428522 0.0021632786          0.5    15.739119 0.0029648944     118.5542    8436.5918 
   30500    72.280685   0.26457753   0.69591704 0.0021632786          0.5    16.044572 0.0030483342    119.29844    8434.7084 
   30600     72.58495   0.26496698   0.69757618 0.0021632786          0.5    16.348148 0.0030563332    119.36906    8432.8161 
   30700    72.888058   0.26440935   0.69961704 0.0021632786          0.5    16.651256 0.0030007727    118.12568    8431.2092 
   30800    73.185744   0.26490571   0.70145661 0.0021632786          0.5    16.948941 0.0029481366    116.85671    8429.8964 
   30900    73.478288   0.26482563   0.70283965 0.0021632786          0.5    17.241486  0.002898177    115.97538    8428.7906 
   31000    73.765949   0.26455254   0.70422786 0.0021632786          0.5    17.529146 0.0028506744    114.61303    8428.0067 
   31100    74.048962   0.26478563   0.70571337 0.0021632786          0.5     17.81216 0.0028054339     116.4475     8426.794 
   31200    74.327547   0.26404004   0.70735235 0.0021632786          0.5    18.090745 0.0027622814    116.53505    8425.5635 
   31300    74.601905   0.26495022   0.70829912 0.0021632786          0.5    18.365103  0.002721061    116.31181    8424.3865 
   31400    74.872223   0.26319979   0.70976389 0.0021632786          0.5    18.635421 0.0026816328    116.98793    8423.0581 
   31500    75.138674   0.26447125   0.71119956 0.0021632786          0.5    18.901871 0.0026438705    116.18233     8421.915 
   31600    75.401419   0.26448669   0.71276445 0.0021632786          0.5    19.164616 0.0026076601    116.79066    8420.6363 
   31700    75.660609   0.26394181   0.71423783 0.0021632786          0.5    19.423807  0.002572898    117.68137    8419.1623 
   31800    75.916385   0.26411379   0.71564969 0.0021632786          0.5    19.679582 0.0025394902    117.45803    8417.7414 
   31900    76.168877   0.26427027    0.7170078 0.0021632786          0.5    19.932075 0.0025073509    116.42598    8416.5531 
   32000     76.41821   0.26468071   0.71840005 0.0021632786          0.5    20.181408  0.002476402    116.37229    8415.3788 
   32100    76.664498   0.26473358   0.71959312 0.0021632786          0.5     20.42806 0.0024465272    116.62202    8414.1511 
   32200    76.907847    0.2649941   0.72097358 0.0021632786          0.5     20.67141 0.0024177511    116.67834    8412.9132 
   32300    77.148364   0.26459346   0.72223087 0.0021632786          0.5    20.911927 0.0023899672    117.83534    8411.4255 
   32400    77.386145   0.26407502   0.72345742 0.0021632786          0.5    21.149708 0.0023631198    118.65015    8409.7677 
   32500    77.621282   0.26457223   0.72458617 0.0021632786          0.5    21.384844 0.0023371573    117.22682    8408.4196 
   32600     77.85386    0.2652259   0.72562281 0.0021632786          0.5    21.617423 0.0023120323    117.07943    8407.1064 
   32700    78.083954   0.26477678   0.72671142 0.0021632786          0.5    21.850799  0.002287349    116.66147    8405.8865 
   32800    78.311619   0.26402947   0.72798415 0.0021632786          0.5    22.078906 0.0022637352     118.0451    8404.3726 
   32900    78.536958   0.26440422   0.72934553 0.0021632786          0.5    22.304246 0.0022408821    118.38551    8402.7911 
   33000    78.760023    0.2649347   0.73053411 0.0021632786          0.5    22.535464 0.0022179982    117.49432    8401.4018 
   33100    78.980936   0.26454045   0.73186348 0.0021632786          0.5    22.745449 0.0021975612    116.82377    8400.1585 
   33200    79.199746   0.26419055   0.73305276 0.0021632786          0.5    22.964259 0.0021766351    117.68665    8398.7348 
   33300    79.416489   0.26424482   0.73402619 0.0021632786          0.5    23.181002 0.0021562956    118.14006    8397.2198 
   33400    79.631207   0.26482637   0.73499421 0.0021632786          0.5     23.39742 0.0021363973    117.94359    8395.7496 
   33500    79.843977   0.26420723   0.73640098 0.0021632786          0.5    23.610409 0.0021171367    118.09249    8394.2523 
   33600    80.054844   0.26413995   0.73789103 0.0021632786          0.5     23.82118 0.0020984161    118.68422    8392.6374 
   33700    80.263861   0.26445582   0.73905675 0.0021632786          0.5    24.030196 0.0020801735    116.43923     8391.493 
   33800    80.471075    0.2646728    0.7401602 0.0021632786          0.5     24.23741 0.0020623985    115.96502    8390.4506 
   33900    80.676531   0.26448723   0.74126489 0.0021632786          0.5    24.442867 0.0020450716    116.54127    8389.2878 
   34000    80.880275   0.26330961    0.7425575 0.0021632786          0.5     24.64661 0.0020281743    114.70694    8388.5166 
   34100    81.082347    0.2639742   0.74330743 0.0021632786          0.5    24.848682  0.002011689    117.11056     8387.238 
   34200    81.282788   0.26362008   0.74434441 0.0021632786          0.5    25.049124 0.0019955993    118.03211    8385.7736 
   34300    81.481638   0.26371712   0.74562807 0.0021632786          0.5    25.247974 0.0019798897    116.39467    8384.6484 
   34400    81.678934     0.264789   0.74641505 0.0021632786          0.5    25.445269 0.0019645453    116.88019    8383.4245 
   34500    81.874711    0.2642157   0.74740105 0.0021632786          0.5    25.641046 0.0019495523    117.13921    8382.1499 
   34600    82.069004   0.26606465   0.74813797 0.0021632786          0.5    25.835339 0.0019348975    115.68116    8381.1779 
   34700    82.261845   0.26509367   0.74923851 0.0021632786          0.5    26.029116 0.0019204999    117.14169    8379.9066 
   34800    82.453273   0.26508778   0.75029792 0.0021632786          0.5    26.218511  0.001906633     116.2776    8378.8138 
   34900    82.643316   0.26489859    0.7514006 0.0021632786          0.5    26.408539 0.0018929181    116.93907    8377.5877 
   35000    82.832002   0.26481323   0.75247341 0.0021632786          0.5    26.597225 0.0018794952    116.18992    8376.5158 
   35100    83.019358   0.26490638    0.7538674 0.0021632786          0.5     26.78458 0.0018663538      116.828    8375.3159 
   35200    83.205412   0.26536395   0.75493933 0.0021632786          0.5    26.970635 0.0018534843    116.28395    8374.2276 
   35300    83.390191   0.26441679   0.75593035 0.0021632786          0.5    27.155414 0.0018408774    117.04598    8372.9877 
   35400    83.573721   0.26434177   0.75701289 0.0021632786          0.5    27.338943 0.0018285244     116.8612    8371.7868 
   35500    83.756026    0.2637056   0.75821268 0.0021632786          0.5    27.521249 0.0018164167    114.94557    8370.9752 
   35600    83.937132   0.26420531   0.75931725 0.0021632786          0.5    27.702355 0.0018045465    117.04572    8369.7405 
   35700    84.117061   0.26415171   0.76069054 0.0021632786          0.5    27.882283  0.001792906    116.91818    8368.5331 
   35800    84.295835   0.26441759   0.76196634 0.0021632786          0.5    28.061006 0.0017814883     115.2326    8367.6646 
   35900    84.473478   0.26407684   0.76333815 0.0021632786          0.5    28.238649 0.0017702856    117.04438    8366.4353 
   36000     84.65001   0.26523894   0.76432611 0.0021632786          0.5    28.415181 0.0017592917    115.03813    8365.6071 
   36100    84.825452   0.26474951   0.76544662 0.0021632786          0.5    28.590612 0.0017485005    113.73483    8365.0447 
   36200    84.999823   0.26365721   0.76669936 0.0021632786          0.5    28.765022 0.0017379002    117.27139    8363.7746 
   36300    85.173144   0.26487491   0.76744636 0.0021632786          0.5    28.938293 0.0017274979    116.84248    8362.5898 
   36400    85.345432   0.26526074   0.76831838 0.0021632786          0.5    29.110908 0.0017172568    116.51155    8361.4712 
   36500    85.516706   0.26555484   0.76930381 0.0021632786          0.5    29.281681 0.0017072397    117.11837    8360.2367 
   36600    85.686982   0.26531467   0.77029662 0.0021632786          0.5    29.452033 0.0016973629     117.6512    8358.9024 
   36700    85.856252   0.26507214   0.77141026 0.0021632786          0.5    29.620926 0.0016876529    117.40838     8357.617 
   36800    86.024511   0.26408121   0.77261986 0.0021632786          0.5    29.783851  0.001678413    118.12459    8356.1987 
   36900    86.191935   0.26495982   0.77334624 0.0021632786          0.5    29.949543 0.0016691239    116.48657    8355.0943 
   37000    86.358429   0.26532476   0.77403762 0.0021632786          0.5    30.117962 0.0016597791    116.05923    8354.0734 
   37100    86.523996    0.2655561   0.77479019 0.0021632786          0.5    30.284774 0.0016505963    116.27393    8353.0121 
   37200    86.688657   0.26496346   0.77573824 0.0021632786          0.5    30.451042 0.0016415372    116.33143    8351.9409 
   37300    86.852439   0.26371259    0.7770682 0.0021632786          0.5    30.609569 0.0016329864    117.70287    8350.6122 
   37400    87.015359   0.26530065   0.77802166 0.0021632786          0.5    30.770083 0.0016244539     118.3785    8349.1614 
   37500    87.185328   0.26437999   0.77919333 0.0021632786          0.5    19.594043 0.0019587394    119.92837    8347.4336 
   37600    87.382047   0.26491248   0.78004098 0.0021632786          0.5    19.790762 0.0019760401    123.51304    8345.0911 
   37700    87.580333   0.26521144    0.7807077 0.0021632786          0.5    19.989047 0.0019913832    123.41139    8342.7738 
   37800    87.780181   0.26606242   0.78150081 0.0021632786          0.5    20.188749 0.0020067145    123.34443    8340.4757 
   37900     87.98154   0.26486293   0.78282665 0.0021632786          0.5    18.477835 0.0020231425    120.92907    8338.5964 
   38000    88.184601   0.26532207   0.78375842 0.0021632786          0.5    18.666852 0.0020397782    120.45478    8336.8052 
   38100    88.389259   0.26538955   0.78468096 0.0021632786          0.5    18.887107  0.002056118     119.4515     8335.195 
   38200    88.595635   0.26589027    0.7854475 0.0021632786          0.5    16.479228 0.0020730687     119.6703    8333.5503 
   38300    88.803576   0.26546377   0.78643618 0.0021632786          0.5    16.687098 0.0021011851    121.07433    8331.6666 
   38400     89.01423   0.26410023   0.78742317 0.0021632786          0.5    16.897752 0.0021160205    120.42026    8329.9007 
   38500     89.22678   0.26613202   0.78796253 0.0021632786          0.5    20.173467 0.0021365886    122.50446    8327.7868 
   38600    89.440728   0.26529338    0.7889668 0.0021632786          0.5    19.908347 0.0021326995    120.86374    8325.9556 
   38700    89.653329    0.2658959   0.78957187 0.0021632786          0.5    20.078894 0.0021186415     116.5516      8324.89 
   38800    89.864464    0.2644601   0.79047084 0.0021632786          0.5    20.290555 0.0021025295    116.61359    8323.8142 
   38900    90.073929   0.26585401    0.7911336 0.0021632786          0.5    20.473345 0.0020853901    116.70967     8322.722 
   39000    90.288545   0.26454034   0.79223266 0.0021632786          0.5    18.171044 0.0021718754    116.80646    8321.6135 
   39100    90.505127     0.265161   0.79334201 0.0021632786          0.5    18.387626 0.0021582183    113.21798    8321.1732 
   39200    90.726457   0.26417899   0.79448167 0.0021632786          0.5    18.609158 0.0023168603    119.55013     8319.584 
   39300    90.959109   0.26459597   0.79520285 0.0021632786          0.5    17.676093   0.00233839    119.80094    8317.9558 
   39400    91.193832   0.26434312   0.79619041 0.0021632786          0.5    16.947128 0.0023577236    122.55475    8315.8744 
   39500    91.439565    0.2640393    0.7976813 0.0021632786          0.5    17.192861 0.0026574928    120.09818    8314.2051 
   39600    91.703998   0.26523432   0.79899896 0.0021632786          0.5    17.457294 0.0026283796    116.41444    8313.1792 
   39700    91.965553   0.26405906   0.80052392 0.0021632786          0.5    17.718849 0.0025996952     116.9127    8312.0655 
   39800    92.235022   0.26383791    0.8020241 0.0021632786          0.5    17.988318 0.0027496076    117.63321    8310.8267 
   39900    92.508971   0.26302418   0.80347144 0.0021632786          0.5    18.262267 0.0027238807    115.54805     8309.959 
   40000    92.779573   0.26388577   0.80430019 0.0021632786          0.5    18.532869 0.0026845058    115.99715    8309.0109 
   40100    93.046313   0.26418283   0.80512131 0.0021632786          0.5    18.799294 0.0026468226    114.56617     8308.321 
   40200    93.309356   0.26442968   0.80632344 0.0021632786          0.5    19.062245 0.0026106545    117.18633    8307.1642 
   40300    93.568834   0.26522017   0.80756717 0.0021632786          0.5    19.322166 0.0025761211    117.87504    8305.8902 
   40400    93.824941    0.2641031   0.80891793 0.0021632786          0.5    19.577477  0.002542823    117.27975    8304.7206 
   40500    94.077767   0.26476575    0.8098503 0.0021632786          0.5    19.830303 0.0025106801    117.61718    8303.4946 
   40600    94.327432   0.26417878   0.81082463 0.0021632786          0.5    20.080273 0.0024796812    117.70422    8302.2555 
   40700    94.574166   0.26444219   0.81178196 0.0021632786          0.5    20.264149 0.0024569558     118.1835    8300.9372 
   40800     94.81855    0.2634126   0.81321193 0.0021632786          0.5    20.508147 0.0024279623    114.99274    8300.1732 
   40900    95.060077   0.26405199   0.81434688 0.0021632786          0.5    20.749674 0.0023999302    117.03611    8299.0526 
   41000    95.298843   0.26335198   0.81548123 0.0021632786          0.5     20.98844  0.002372845    115.11905    8298.2662 
   41100     95.53495   0.26314535   0.81664645 0.0021632786          0.5    21.215204 0.0023475716    115.04633    8297.4921 
   41200    95.768631   0.26377312   0.81779232 0.0021632786          0.5    21.439904 0.0023231065    117.09999    8296.3628 
   41300    95.999829   0.26365418   0.81913026 0.0021632786          0.5    21.671101 0.0022985103    116.73637    8295.2966 
   41400    96.228601    0.2637463   0.82010416 0.0021632786          0.5    21.899874 0.0022746775    115.17754    8294.4999 
   41500    96.455023   0.26284824   0.82112763 0.0021632786          0.5    22.126296 0.0022515695    116.92926    8293.4024 
   41600    96.679166   0.26446209   0.82233757 0.0021632786          0.5    22.350438 0.0022291504    116.95988    8292.3009 
   41700    96.901076   0.26399524   0.82364201 0.0021632786          0.5    22.589569 0.0022058782     115.6223    8291.4279 
   41800    97.120793   0.26467809    0.8249325 0.0021632786          0.5    22.799269  0.002185764    116.97769    8290.3252 
   41900    97.338438   0.26384094   0.82650018 0.0021632786          0.5    23.017266 0.0021651745    117.35766    8289.1605 
   42000    97.554049   0.26385221   0.82798806 0.0021632786          0.5    23.240635 0.0021444775    115.07837    8288.3821 
   42100    97.767607   0.26347531   0.82932415 0.0021632786          0.5    23.455895 0.0021249857    115.89472    8287.4641 
   42200    97.979251   0.26355859   0.83064997 0.0021632786          0.5    23.667539 0.0021061005    115.54709    8286.6052 
   42300     98.18903   0.26316453   0.83181967 0.0021632786          0.5    23.877318 0.0020877091     116.5121     8285.584 
   42400    98.396987   0.26378226   0.83294986 0.0021632786          0.5    24.087202 0.0020696422    117.60168     8284.384 
   42500    98.608073   0.26461607   0.83400639 0.0021632786          0.5    22.574382 0.0021686682    119.35197    8282.9047 
   42600    98.824094   0.26508371   0.83507083 0.0021632786          0.5     22.78127 0.0021495613    116.53369    8281.8838 
   42700    99.038184   0.26412219   0.83648407 0.0021632786          0.5    22.995097 0.0021303722    115.37431     8281.057 
   42800    99.250375   0.26400463   0.83784328 0.0021632786          0.5    23.207288 0.0021116637    117.00366    8279.9601 
   42900    99.460717   0.26436519   0.83874784 0.0021632786          0.5    23.417447 0.0020934301    116.12758    8279.0081 
   43000    99.669257   0.26511356   0.83976002 0.0021632786          0.5    23.625888 0.0020756642    113.05706    8278.5771 
   43100     99.87604   0.26401842   0.84094221 0.0021632786          0.5    23.832671 0.0020583316    117.32916    8277.4289 
   43200    100.08109   0.26522056   0.84197781 0.0021632786          0.5    24.040404 0.0020410282    115.98695    8276.5005 
   43300    100.28445   0.26504898   0.84327343 0.0021632786          0.5    24.245468 0.0020242091    116.62066     8275.469 
   43400    100.48617   0.26461974   0.84458539 0.0021632786          0.5    24.439792 0.0020085251    117.41568    8274.3102 
   43500    100.68628   0.26489639    0.8457284 0.0021632786          0.5    24.647295 0.0019914685    118.08385    8273.0469 
   43600    100.88489   0.26503646   0.84703174 0.0021632786          0.5    24.902774 0.0019778852    117.92522    8271.8105 
   43700    101.09379   0.26482895    0.8482037 0.0021632786          0.5    17.653584 0.0022149797    119.38673    8270.3488 
   43800    101.31484   0.26477434   0.84966332 0.0021632786          0.5    17.874631 0.0022052861    117.29422     8269.216 
   43900    101.53495   0.26555626   0.85088202 0.0021632786          0.5    18.094739 0.0021958524    118.18919     8267.944 
   44000    101.75408   0.26411809   0.85216741 0.0021632786          0.5    18.313866 0.0021859924    117.07038    8266.8496 
   44100    101.97223   0.26511278   0.85326312 0.0021632786          0.5    18.532023 0.0021761777    116.74375     8265.808 
   44200    102.20959   0.26485837   0.85483343 0.0021632786          0.5    18.769377 0.0026592614     116.5641    8264.7959 
   44300    102.47384   0.26410635   0.85602986 0.0021632786          0.5    19.033313 0.0026224946    117.13319    8263.6945 
   44400    102.73455   0.26551571   0.85677286 0.0021632786          0.5     19.28831 0.0025878966    115.98734    8262.7758 
   44500     102.9918   0.26609239   0.85812986 0.0021632786          0.5    19.545561 0.0025539477    116.90902    8261.7114 
   44600    103.24571   0.26395674   0.86012475 0.0021632786          0.5    19.799476 0.0025212998    117.44589    8260.5642 
   44700    103.49642   0.26447578   0.86148694 0.0021632786          0.5    20.050182 0.0024898721    117.91925    8259.3452 
   44800    103.74404   0.26457611   0.86242445 0.0021632786          0.5    20.297798 0.0024595903     118.0544    8258.1072 
   44900    103.98867   0.26513329     0.863414 0.0021632786          0.5    20.542434 0.0024303866    114.39593    8257.4471 
   45000    104.23043   0.26417812   0.86478814 0.0021632786          0.5      20.7882 0.0024017648    115.97159    8256.5341 
   45100    104.46951   0.26493121   0.86604474 0.0021632786          0.5    20.998894 0.0023781915    115.53296    8255.6907 
   45200    104.70613   0.26516839   0.86757626 0.0021632786          0.5    21.239809 0.0023512791    114.96551    8254.9373 
   45300    104.94004   0.26447196   0.86899118 0.0021632786          0.5    21.271235 0.0023460203    117.17795    8253.8374 
   45400    105.17492   0.26489612   0.86986348 0.0021632786          0.5    20.038693 0.0023364491    118.19869    8252.5835 
   45500     105.4075    0.2650751   0.87087501 0.0021632786          0.5    20.275505 0.0023119063      115.571     8251.735 
   45600    105.63748   0.26443679   0.87240971 0.0021632786          0.5    19.785499 0.0023888589    117.87561    8250.5323 
   45700     105.8808   0.26489448   0.87379125 0.0021632786          0.5    16.650644 0.0024277599    118.64662    8249.2161 
   45800    106.12309   0.26562511   0.87451826 0.0021632786          0.5     16.89437 0.0024168935    117.20484    8248.1179 
   45900    106.36428    0.2644549   0.87558136 0.0021632786          0.5    17.135927 0.0024058949     117.3015    8247.0062 
   46000    106.60437   0.26532359   0.87665282 0.0021632786          0.5    17.376017 0.0023947348    115.23991    8246.2119 
   46100    106.84774   0.26550887   0.87752633 0.0021632786          0.5    17.619386 0.0028087474      117.866    8245.0173 
   46200    107.12667   0.26580553   0.87879948 0.0021632786          0.5    17.898314 0.0027658465     117.0304    8243.9492 
   46300     107.4014   0.26476703   0.88079091 0.0021632786          0.5    18.173038 0.0027248419    116.83373    8242.9116 
   46400     107.6721   0.26441452   0.88251536 0.0021632786          0.5    18.443742 0.0026855984    116.60069      8241.91 
   46500    107.93895    0.2653243    0.8839602 0.0021632786          0.5    18.710597 0.0026479938    117.35697    8240.7957 
   46600    108.20212    0.2644263   0.88561428 0.0021632786          0.5    18.967269 0.0026125895    117.13073    8239.7162 
   46700    108.46183   0.26372029   0.88740522 0.0021632786          0.5    19.226088 0.0025779979    116.58789    8238.7188 
   46800    108.71804   0.26482428   0.88862788 0.0021632786          0.5     19.47888 0.0025444654    117.36124    8237.6068 
   46900    108.97107   0.26545254   0.88977626 0.0021632786          0.5    19.725986  0.002513053    118.00484    8236.4016 
   47000    109.22097   0.26544191   0.89108567 0.0021632786          0.5    19.975891 0.0024821394    115.52026    8235.5674 
   47100    109.46783   0.26516289   0.89269481 0.0021632786          0.5    20.227265 0.0024520309    117.14801    8234.4897 
   47200    109.71174    0.2647174   0.89425767 0.0021632786          0.5    20.470351 0.0024233936    117.64664      8233.34 
   47300    109.95282   0.26528353   0.89592481 0.0021632786          0.5    20.711433 0.0023956186    116.73813    8232.3248 
   47400    110.19116   0.26606559   0.89761749 0.0021632786          0.5    20.949779 0.0023687728     117.6317    8231.1794 
   47500    110.42687   0.26593049   0.89916068 0.0021632786          0.5    21.185481 0.0023428058    117.27234    8230.0876 
   47600    110.66001   0.26515089   0.90067052 0.0021632786          0.5    21.418624 0.0023176708    116.44033    8229.1186 
   47700    110.89067   0.26653169   0.90205528 0.0021632786          0.5    21.649289 0.0022933243    116.67101    8228.1163 
   47800    111.11894   0.26650684   0.90375174 0.0021632786          0.5    21.877554 0.0022697261    116.73816    8227.1047 
   47900    111.34488     0.267104   0.90529184 0.0021632786          0.5    22.103491 0.0022468388    116.19462    8226.1734 
   48000    111.56855   0.26667242    0.9069334 0.0021632786          0.5    22.327169 0.0022246274    116.76022    8225.1597 
   48100    111.79004    0.2677706   0.90828021 0.0021632786          0.5    22.548687 0.0022030516    116.56968    8224.1744 
   48200     112.0094   0.26733309   0.90950039 0.0021632786          0.5    22.769261 0.0021818647    116.96715     8223.132 
   48300    112.22661   0.26797134   0.91086784 0.0021632786          0.5    22.988362 0.0021598352    116.55879    8222.1494 
   48400     112.4417   0.26741068   0.91228298 0.0021632786          0.5    23.204738 0.0021394281    117.16421    8221.0802 
   48500    112.66711   0.26817903   0.91390098 0.0021632786          0.5    21.213253 0.0023559621    118.19619    8219.8657 
   48600    112.90154   0.26612983   0.91542268 0.0021632786          0.5    21.447684 0.0023302332    117.26877    8218.7837 
   48700    113.13344   0.26660286   0.91642454 0.0021632786          0.5     21.67958 0.0023053293    116.94305     8217.749 
   48800    113.36288   0.26613018   0.91772769 0.0021632786          0.5    21.909021 0.0022812072    117.43251    8216.6456 
   48900    113.58994   0.26575106    0.9187184 0.0021632786          0.5    22.136148 0.0022578199    117.05614    8215.5964 
   49000     113.8147    0.2668778    0.9197291 0.0021632786          0.5    22.360778 0.0022351528    113.26813    8215.1026 
   49100     114.0372   0.26795528   0.92082081 0.0021632786          0.5    22.593764 0.0022120701    115.88774    8214.2206 
   49200    114.25738   0.26646108   0.92225102 0.0021632786          0.5    22.821756 0.0021899605    117.24635    8213.1456 
   49300    114.47544   0.26606861   0.92372379 0.0021632786          0.5    23.039816 0.0021692511    116.72916    8212.1442 
   49400    114.69145   0.26631794   0.92512964 0.0021632786          0.5    23.255707 0.0021491227    116.47179    8211.1799 
   49500    114.90548   0.26583282   0.92615539 0.0021632786          0.5    23.469735 0.0021295394    116.76159    8210.1752 
   49600    115.11757   0.26575093   0.92711213 0.0021632786          0.5    23.682056 0.0021104582    116.11774    8209.2619 
   49700    115.32778   0.26558261   0.92818928 0.0021632786          0.5    23.891922 0.0020919305    116.63996    8208.2752 
   49800    115.53615   0.26574525   0.92954702 0.0021632786          0.5    24.104209 0.0020735034    117.19825    8207.2111 
   49900    115.74272   0.26495939   0.93111507 0.0021632786          0.5    24.307498 0.0020561738    116.70899    8206.2159 
   50000    115.94756   0.26709425   0.93221877 0.0021632786          0.5    24.512193  0.002039006    116.23639    8205.2875 
   50100     116.1507   0.26647959   0.93324541 0.0021632786          0.5    24.715201 0.0020222614    114.27198    8204.6398 
   50200    116.35219   0.26629201   0.93458777 0.0021632786          0.5    24.916636 0.0020059064    116.05493    8203.7368 
   50300    116.55205   0.26659209   0.93557015 0.0021632786          0.5    25.116169  0.001989943     116.7432     8202.738 
   50400    116.75034   0.26722257   0.93654854 0.0021632786          0.5    25.314208 0.0019743527    116.99903    8201.7045 
   50500    116.94702    0.2659715   0.93786832 0.0021632786          0.5    25.535214 0.0019574711    114.97358    8200.9548 
   50600     117.1421   0.26600373   0.93915199 0.0021632786          0.5    25.725906 0.0019428542    117.28677    8199.8828 
   50700    117.33574   0.26545759   0.94042546 0.0021632786          0.5    25.920618 0.0019281779    117.29586    8198.8104 
   50800    117.52791   0.26580459    0.9415321 0.0021632786          0.5    26.114723 0.0019137278    116.86693    8197.7973 
   50900    117.71865   0.26639752   0.94234093 0.0021632786          0.5    26.307331 0.0018993958    116.24299    8196.8705 
   51000    117.90794   0.26568726   0.94336686 0.0021632786          0.5    26.489955 0.0018860505    115.23047    8196.0847 
   51100      118.102   0.26606315   0.94432442 0.0021632786          0.5     19.14328 0.0019533977    115.31671    8195.2864 
   51200    118.29684    0.2662388   0.94538647 0.0021632786          0.5    19.337812 0.0019423783    117.07287    8194.2468 
   51300    118.49057   0.26617326   0.94655351 0.0021632786          0.5    19.530898 0.0019306722    115.11665    8193.4764 
   51400    118.68321   0.26591606   0.94773031 0.0021632786          0.5    19.710826 0.0019204179    115.73993    8192.6193 
   51500    118.87476   0.26601939   0.94872882 0.0021632786          0.5    19.907682 0.0019096842     115.3457    8191.8165 
   51600    119.06526   0.26627176   0.94983628 0.0021632786          0.5    20.098175 0.0018991567     114.3809    8191.1479 
   51700     119.2547   0.26569909   0.95122719 0.0021632786          0.5    20.288144 0.0018875197    117.00066    8190.1194 
   51800    119.47993   0.26566713   0.95263595 0.0021632786          0.5    19.674464 0.0023946427    120.78974    8188.6008 
   51900    119.71994   0.26649975   0.95402655 0.0021632786          0.5    19.912472 0.0024066671    122.17947    8186.9129 
   52000    119.96115   0.26578905   0.95599499 0.0021632786          0.5    20.325088  0.002418841    121.86428    8185.2668 
   52100    120.20336   0.26544919   0.95766337 0.0021632786          0.5    20.576203  0.002417114    116.51929    8184.3089 
   52200    120.44383   0.26536209   0.95902427 0.0021632786          0.5    20.822884 0.0023906091    116.94634    8183.2943 
   52300     120.6817    0.2668088   0.96022562 0.0021632786          0.5    21.060879 0.0023643635     117.0467    8182.2672 
   52400    120.91696   0.26620501   0.96121041 0.0021632786          0.5    21.300398 0.0023381732    116.92049    8181.2573 
   52500    121.14964   0.26544698   0.96214568 0.0021632786          0.5    21.537972 0.0023129018     116.9956    8180.2381 
   52600    121.37983   0.26592088    0.9631504 0.0021632786          0.5    21.764312 0.0022893271    117.40122    8179.1664 
   52700    121.60767   0.26653342   0.96442525 0.0021632786          0.5    21.996773 0.0022653284    116.95632    8178.1537 
   52800    121.83319   0.26575688   0.96599524 0.0021632786          0.5    22.217316  0.002242975    116.33656    8177.2234 
   52900    122.05646   0.26580182   0.96728695 0.0021632786          0.5    22.452348 0.0022197661    117.27015    8176.1708 
   53000    122.27751     0.265363   0.96849867 0.0021632786          0.5    22.664627 0.0021990953    114.48314    8175.4898 
[...]
  985300    2235.4755   0.26335661    10.403787 0.0021632786          0.5    20.482616 0.0024319393    106.63722    131.73271 
  985400    2235.7171   0.26260728    10.405101 0.0021632786          0.5    20.734766 0.0024000674    108.68277    130.83692 
  985500     2235.956   0.26288556    10.406405 0.0021632786          0.5    20.939302 0.0023741261    108.78634    129.94112 
  985600     2236.192   0.26334899    10.407609 0.0021632786          0.5    21.178398 0.0023438026    108.76447    129.04531 
  985700    2236.4451    0.2624297    10.409009 0.0021632786          0.5    18.854768 0.0026433669    109.55399    128.14941 
  985800    2236.7078   0.26248086    10.410181 0.0021632786          0.5    19.117469 0.0026072707    106.36374    127.25389 
  985900     2236.967   0.26251653    10.411057 0.0021632786          0.5    19.376774  0.002572627    108.75878    126.35807 
  986000    2237.2227   0.26318624    10.412367 0.0021632786          0.5    19.632527 0.0025393114    107.09837    125.46245 
  986100    2237.4752   0.26309772    10.413641 0.0021632786          0.5    19.885005 0.0025072555    107.55279    124.56676 
  986200    2237.7245   0.26344767     10.41452 0.0021632786          0.5    20.134332 0.0024763821    108.28501    123.67098 
  986300    2237.9708   0.26352008    10.415079 0.0021632786          0.5    20.380622 0.0024466202    107.96652    122.77523 
  986400    2238.2142   0.26376505    10.416165 0.0021632786          0.5    20.623865 0.0024178128    110.05047    121.87923 
  986500    2238.4547   0.26402415     10.41694 0.0021632786          0.5    20.866332 0.0023894327    108.46563    120.98341 
  986600    2238.6924   0.26443099    10.417983 0.0021632786          0.5     21.09984  0.002362569    107.96338    120.08765 
  986700    2238.9274   0.26409238    10.418994 0.0021632786          0.5    21.347274 0.0023342978    107.81763    119.19189 
  986800    2239.1597   0.26371376    10.419498 0.0021632786          0.5    21.574734 0.0023077586    108.79878    118.29602 
  986900    2239.3933   0.26379613    10.420279 0.0021632786          0.5    20.898449 0.0023225963    108.74008    117.40015 
  987000    2239.6245   0.26457859    10.421216 0.0021632786          0.5    21.131988 0.0022987125    106.19421    116.50457 
  987100    2239.8533   0.26397484     10.42237 0.0021632786          0.5    21.361408  0.002275335    108.49399    115.60871 
  987200    2240.0798   0.26332119    10.423524 0.0021632786          0.5    21.587775 0.0022527545    109.56778    114.71273 
  987300    2240.3041   0.26383377    10.424417 0.0021632786          0.5    21.812058 0.0022308224    109.55688    113.81675 
  987400    2240.5262   0.26376288    10.425587 0.0021632786          0.5    22.034176 0.0022095075    110.04247    112.92072 
  987500    2240.7462   0.26312139    10.426577 0.0021632786          0.5     22.25419 0.0021887817    106.86443    112.02502 
  987600    2240.9642   0.26416314    10.427554 0.0021632786          0.5    22.472156 0.0021686186    108.26941    111.12917 
  987700    2241.1802   0.26353284    10.428615 0.0021632786          0.5     22.68813 0.0021489935    108.58424    110.23327 
  987800    2241.3942   0.26427637    10.429384 0.0021632786          0.5    22.902166  0.002129883    108.12985    109.33742 
  987900    2241.6064    0.2644544    10.430087 0.0021632786          0.5    23.114312 0.0021112654    108.04746    108.44157 
  988000    2241.8167   0.26338813    10.431377 0.0021632786          0.5    23.324618   0.00209312    106.68729    107.54586 
  988100    2242.0252   0.26470474    10.432278 0.0021632786          0.5    23.417809  0.002080254    108.04559       106.65 
  988200    2242.2325   0.26466773    10.433259 0.0021632786          0.5    23.619659 0.0020634704    107.82056    105.75415 
  988300     2242.438   0.26388402    10.434207 0.0021632786          0.5    23.825454 0.0020463681    108.77604     104.8582 
  988400    2242.6426   0.26467989    10.434907 0.0021632786          0.5    24.217905 0.0020305465    108.28652     103.9623 
  988500    2242.8456   0.26401762    10.435875 0.0021632786          0.5    23.840923 0.0020195486    110.35798    103.06619 
  988600    2243.0468   0.26486501    10.436702 0.0021632786          0.5    24.042022 0.0020038828    110.31038    102.17008 
  988700    2243.2465    0.2646441    10.437728 0.0021632786          0.5    24.241717 0.0019885434    108.70111    101.27412 
  988800    2243.4447   0.26515319    10.438689 0.0021632786          0.5    24.439894 0.0019735425    110.52435    100.37799 
  988900    2243.6414   0.26403941    10.439601 0.0021632786          0.5    24.636585  0.001958868    109.56057    99.481939 
  989000    2243.8366   0.26507205    10.440209 0.0021632786          0.5    24.831823 0.0019445083    107.60696    98.586073 
  989100    2244.0304   0.26439698    10.441092 0.0021632786          0.5    25.025639 0.0019304527     107.9198    97.690171 
  989200    2244.2228   0.26437436    10.441947 0.0021632786          0.5    25.218063 0.0019166906    109.77721    96.794091 
  989300    2244.4139   0.26370625    10.443066 0.0021632786          0.5    25.409123 0.0019032121     109.4801    95.898035 
  989400    2244.6036    0.2646627    10.444076 0.0021632786          0.5    25.598848 0.0018900077     110.7779    95.001861 
  989500     2244.792   0.26326373    10.445329 0.0021632786          0.5    25.787264 0.0018770685    109.23221    94.105821 
  989600    2244.9792   0.26370814    10.446196 0.0021632786          0.5    25.974398 0.0018643858    109.04005    93.209795 
  989700    2245.1651   0.26438217    10.446934 0.0021632786          0.5    26.160275 0.0018519512    108.68091    92.313795 
  989800    2245.3497   0.26392019    10.448056 0.0021632786          0.5    26.341393 0.0018395477    108.59377    91.417798 
  989900    2245.5363   0.26423876     10.44908 0.0021632786          0.5    20.998023 0.0018899437     107.8922    90.521857 
  990000    2245.7249   0.26359538     10.45001 0.0021632786          0.5     21.18805 0.0018809069    106.42352     89.62604 
  990100    2245.9125   0.26373576    10.450944 0.0021632786          0.5    21.373182 0.0018703244    107.43458    88.730125 
  990200    2246.0992   0.26477964     10.45135 0.0021632786          0.5    21.559828 0.0018542754    108.98103    87.834072 
  990300    2246.3146   0.26438512    10.452208 0.0021632786          0.5    21.776802 0.0022205905     113.1525    86.937683 
  990400    2246.5404   0.26404687    10.453394 0.0021632786          0.5    21.999423 0.0022583417    110.11189    86.041534 
  990500    2246.7652   0.26460868    10.454566 0.0021632786          0.5    22.224236 0.0022357822    109.57285    85.145425 
  990600    2246.9878   0.26461321    10.455558 0.0021632786          0.5    22.446824  0.002213883    108.45057    84.249402 
  990700    2247.2082   0.26497513    10.456629 0.0021632786          0.5     22.66725 0.0021926126     107.4751    83.353453 
  990800    2247.4265   0.26457512     10.45772 0.0021632786          0.5    22.885576 0.0021719416    108.08686    82.457448 
  990900    2247.6428   0.26538498    10.458723 0.0021632786          0.5    23.101861 0.0021518424    107.90547    81.561451 
  991000    2247.8571   0.26467731    10.459895 0.0021632786          0.5    23.316161 0.0021322891    106.09754    80.665591 
  991100    2248.0694   0.26407986    10.461133 0.0021632786          0.5    23.562187 0.0021102157    107.18436    79.769636 
  991200    2248.2797   0.26522024    10.462121 0.0021632786          0.5    23.754789 0.0020928273    107.54816    78.873646 
  991300    2248.4882   0.26474481    10.463532 0.0021632786          0.5    23.955738  0.002073944    107.81704    77.977628 
  991400    2248.6947   0.26472271    10.464802 0.0021632786          0.5    24.201833 0.0020556224     106.8108     77.08168 
  991500    2248.9162   0.26530814    10.466129 0.0021632786          0.5    19.108655 0.0023538929    110.95763    76.185424 
  991600    2249.1515   0.26492847    10.467409 0.0021632786          0.5      19.3436 0.0023529526    109.27837    75.289284 
  991700    2249.3868    0.2645087     10.46884 0.0021632786          0.5    19.578507 0.0023520949    108.19772    74.393217 
  991800    2249.6219   0.26427449    10.470205 0.0021632786          0.5    19.813665 0.0023507307    107.83844    73.497169 
  991900    2249.8569   0.26453895    10.471387 0.0021632786          0.5    20.048622  0.002493478    108.59132    72.601063 
  992000    2250.1049   0.26485921    10.472473 0.0021632786          0.5    20.296591 0.0024630256    107.57963    71.705022 
  992100    2250.3498   0.26519642    10.473364 0.0021632786          0.5    20.541563 0.0024336627     106.7882    70.809028 
  992200    2250.5919   0.26472629    10.474853 0.0021632786          0.5    20.785842 0.0024049973    109.09266    69.912871 
  992300    2250.8312    0.2647112    10.476171 0.0021632786          0.5    21.018994 0.0023782935    107.05296    69.016846 
  992400    2251.0678   0.26543806    10.477279 0.0021632786          0.5    21.255625  0.002351828    108.13033    68.120741 
  992500    2251.3019   0.26522583    10.478578 0.0021632786          0.5    21.489649 0.0023262269    109.87838     67.22452 
  992600    2251.5334   0.26464402    10.479812 0.0021632786          0.5     21.72115 0.0023014443    106.55348    66.328507 
  992700    2251.7743    0.2660563    10.480728 0.0021632786          0.5    18.437807 0.0026687026    108.18974    65.432382 
  992800    2252.0397   0.26587233    10.481852 0.0021632786          0.5    18.703196 0.0026359412     106.9632    64.536328 
  992900    2252.3019   0.26522712     10.48328 0.0021632786          0.5    18.968834  0.002604614    105.02493    63.640389 
  993000    2252.5611    0.2647531    10.484698 0.0021632786          0.5    19.228092 0.0025959355    104.02676    62.744503 
  993100    2252.8192   0.26540614    10.485739 0.0021632786          0.5    19.486132  0.002561674    105.03561     61.84854 
  993200    2253.0739   0.26560374     10.48673 0.0021632786          0.5    19.740807 0.0025287334    105.82358    60.952517 
  993300    2253.3253   0.26543315    10.488079 0.0021632786          0.5    19.992244  0.002497031    105.91794    60.056479 
  993400    2253.5736   0.26576467     10.48903 0.0021632786          0.5    20.245454 0.0024657269    105.52555    59.160454 
  993500    2253.8189   0.26378342    10.490512 0.0021632786          0.5    20.483174 0.0024371161    105.41005    58.264426 
  993600    2254.0613    0.2651641    10.491519 0.0021632786          0.5    20.725402 0.0024087047    103.96058    57.368472 
  993700     2254.301   0.26487227    10.492774 0.0021632786          0.5     20.96503 0.0023812586    105.62531    56.472409 
  993800    2254.5379   0.26591154    10.493916 0.0021632786          0.5    21.201449  0.002354694     104.2829    55.576412 
  993900    2254.7722   0.26570268    10.494841 0.0021632786          0.5    21.436616 0.0023286665    104.99083    54.680362 
  994000    2255.0039   0.26569511    10.495982 0.0021632786          0.5    21.666434 0.0023038681    105.44331    53.784277 
  994100    2255.2332   0.26467968    10.496955 0.0021632786          0.5    21.898405 0.0022787273    104.77907    52.888216 
  994200    2255.4599   0.26548306     10.49757 0.0021632786          0.5    22.129838 0.0022529108    105.27124    51.992118 
  994300    2255.6843   0.26514673    10.498761 0.0021632786          0.5    22.383345 0.0022308929    106.38084    51.095952 
  994400    2255.9072   0.26562115     10.50025 0.0021632786          0.5    22.155731 0.0022151202    106.34179    50.199779 
  994500    2256.1278   0.26719465    10.501409 0.0021632786          0.5    22.319429 0.0021949227    105.19164    49.303655 
  994600    2256.3463   0.26551661    10.502658 0.0021632786          0.5    22.537945 0.0021744899    105.05537    48.407526 
  994700    2256.5629   0.26571738    10.503755 0.0021632786          0.5    22.754494 0.0021545972    105.20789    47.511378 
  994800    2256.7775   0.26507526    10.504739 0.0021632786          0.5    22.957761 0.0021361645    104.81622    46.615238 
  994900    2256.9902   0.26620583    10.505254 0.0021632786          0.5    23.169943 0.0021172229    106.69022       45.719 
  995000    2257.2011    0.2650132    10.506231 0.0021632786          0.5    23.380655 0.0020988402     106.0497    44.822783 
  995100    2257.4102   0.26600607    10.506998 0.0021632786          0.5    23.589729 0.0020809135    108.57704    43.926448 
  995200    2257.6175    0.2648229    10.507543 0.0021632786          0.5     23.79703 0.0020634331    110.24592    43.030041 
  995300    2257.8231   0.26572696    10.508019 0.0021632786          0.5    24.002602 0.0020463808    107.88754    42.133726 
  995400     2258.027   0.26587321    10.508814 0.0021632786          0.5    24.206488 0.0020297397    107.43252    41.237422 
  995500    2258.2292   0.26434299     10.50983 0.0021632786          0.5    24.408728 0.0020134935    108.37653    40.341075 
  995600    2258.4298   0.26453394    10.510359 0.0021632786          0.5     24.60936  0.001997627    107.11524    39.444771 
  995700    2258.6289   0.26439278    10.510959 0.0021632786          0.5    24.808422 0.0019821257    106.92682    38.548466 
  995800    2258.8264   0.26520447    10.511615 0.0021632786          0.5     25.00595 0.0019669759    108.99338    37.652079 
  995900    2259.0269   0.26385905    10.512125 0.0021632786          0.5    21.630742 0.0023049142    107.68528    36.755733 
  996000    2259.2564   0.26469982    10.512681 0.0021632786          0.5    21.860145 0.0022808621    108.96758    35.859337 
  996100    2259.4834   0.26359744    10.513507 0.0021632786          0.5    22.087176 0.0022575466    107.03452    34.963002 
  996200    2259.7081   0.26434415    10.514311 0.0021632786          0.5    22.311805 0.0022349502    107.87824    34.066631 
  996300    2259.9306   0.26350172    10.514957 0.0021632786          0.5    22.534307 0.0022129991    108.54287    33.170233 
  996400     2260.151   0.26542128    10.515534 0.0021632786          0.5    22.754642 0.0021916814    108.64876    32.273826 
  996500    2260.3692   0.26293029    10.516654 0.0021632786          0.5    22.971226 0.0021709971    107.79416    31.377441 
  996600    2260.5854   0.26275752    10.517463 0.0021632786          0.5    23.185833 0.0021509902     106.9806    30.481073 
  996700    2260.7996   0.26348753    10.518137 0.0021632786          0.5    23.400046 0.0021313981    109.40237    29.584629 
  996800    2261.0118   0.26359536    10.519051 0.0021632786          0.5    23.612323 0.0021123312    106.83019    28.688252 
  996900    2261.2222   0.26303693    10.519897 0.0021632786          0.5    23.822717 0.0020937662    106.25028    27.791883 
  997000    2261.4308   0.26399971     10.52023 0.0021632786          0.5    24.031267 0.0020756857    107.19515     26.89548 
  997100    2261.6376   0.26327791    10.520901 0.0021632786          0.5    24.238039 0.0020580612    107.99335     25.99905 
  997200    2261.8426   0.26425933    10.521507 0.0021632786          0.5    24.443068 0.0020408775     108.4741    25.102602 
  997300    2262.0459   0.26400738    10.522054 0.0021632786          0.5    24.646253 0.0020241333    107.90791    24.206162 
  997400    2262.2476   0.26390135    10.522863 0.0021632786          0.5    24.847927 0.0020077779    106.29737    23.309753 
  997500    2262.4477   0.26312219    10.523518 0.0021632786          0.5    25.047983 0.0019918121    108.32078    22.413291 
  997600    2262.6461   0.26423209    10.523946 0.0021632786          0.5     25.24646 0.0019762208    106.41207    21.516863 
  997700    2262.8431   0.26356842    10.524707 0.0021632786          0.5    25.443394 0.0019609896    107.72184      20.6204 
  997800    2263.0385   0.26404381    10.525458 0.0021632786          0.5     25.63882 0.0019461049    107.30279    19.723939 
  997900    2263.2325    0.2638903    10.526383 0.0021632786          0.5    25.832773 0.0019315536    106.23405    18.827491 
  998000     2263.425   0.26493503    10.527089 0.0021632786          0.5    26.025285 0.0019173236    107.00118     17.93102 
  998100    2263.6161   0.26363134    10.527966 0.0021632786          0.5    26.221443 0.0019030586    107.96991    17.034525 
  998200    2263.8058   0.26408169    10.529002 0.0021632786          0.5    26.408222 0.0018897332    106.40119    16.138049 
  998300    2263.9941   0.26429674    10.529871 0.0021632786          0.5    26.596593 0.0018763997    108.30693    15.241537 
  998400    2264.1812   0.26355321    10.530547 0.0021632786          0.5    26.783643 0.0018633442    107.08232    14.345035 
  998500     2264.367    0.2639124    10.531207 0.0021632786          0.5      26.9694 0.0018505572    106.67817    13.448532 
  998600    2264.5514   0.26362388    10.532046 0.0021632786          0.5     27.15389 0.0018380296    107.62339    12.552009 
  998700    2264.7347   0.26319337    10.532802 0.0021632786          0.5    27.337139 0.0018257528    107.58935     11.65548 
  998800    2264.9167   0.26335698    10.533474 0.0021632786          0.5     27.51917 0.0018137185    107.29993    10.758947 
  998900    2265.0976   0.26414607     10.53436 0.0021632786          0.5    27.700009 0.0018019189    107.00326    9.8624098 
  999000    2265.2772   0.26388578    10.535205 0.0021632786          0.5    27.917793 0.0017880428    105.96555    8.9658742 
  999100    2265.4556   0.26291902    10.535864 0.0021632786          0.5    28.086572 0.0017772018    106.88055     8.069322 
  999200    2265.6329   0.26454803    10.536592 0.0021632786          0.5    28.264923 0.0017661077    107.94135    7.1727545 
  999300    2265.8089   0.26305053    10.537647 0.0021632786          0.5    28.425969 0.0017557567    108.92262    6.2761753 
  999400     2265.984   0.26336195     10.53872 0.0021632786          0.5    28.607063 0.0017447999    106.21089    5.3796058 
  999500    2266.1583   0.26348451    10.539633 0.0021632786          0.5    28.707588 0.0017381304    107.31767    4.4830224 
  999600    2266.3317   0.26361153     10.54051 0.0021632786          0.5    28.872335 0.0017284592    106.86158    3.5864336 
  999700    2266.5041   0.26431219    10.541031 0.0021632786          0.5    29.038846 0.0017186406    108.19211    2.6898335 
  999800    2266.6755    0.2632629    10.541897 0.0021632786          0.5    29.216414 0.0017083239    109.00584    1.7932265 
  999900    2266.8459   0.26356761    10.542575 0.0021632786          0.5    29.383793 0.0016987095    108.08098   0.89661611 
 1000000    2267.0153   0.26307011    10.543277 0.0021632786          0.5    29.553018 0.0016890371    106.67372            0 
Loop time of 8966.2 on 4 procs for 1000000 steps with 174274 atoms

Performance: 16275.878 tau/day, 111.530 timesteps/s
238.0% CPU use with 1 MPI tasks x 4 OpenMP threads

MPI task timing breakdown:
Section |  min time  |  avg time  |  max time  |%varavg| %total
---------------------------------------------------------------
Pair    | 3486.7     | 3486.7     | 3486.7     |   0.0 | 38.89
Neigh   | 141.54     | 141.54     | 141.54     |   0.0 |  1.58
Comm    | 1201.9     | 1201.9     | 1201.9     |   0.0 | 13.41
Output  | 25.822     | 25.822     | 25.822     |   0.0 |  0.29
Modify  | 3439.7     | 3439.7     | 3439.7     |   0.0 | 38.36
Other   |            | 670.6      |            |       |  7.48

Nlocal:    174274 ave 174274 max 174274 min
Histogram: 1 0 0 0 0 0 0 0 0 0
Nghost:    66558 ave 66558 max 66558 min
Histogram: 1 0 0 0 0 0 0 0 0 0
Neighs:    0 ave 0 max 0 min
Histogram: 1 0 0 0 0 0 0 0 0 0

Total # of neighbors = 0
Ave neighs/atom = 0
Neighbor list builds = 327863
Dangerous builds = 0

Please see the log.cite file for references relevant to this simulation

Total wall time: 2:30:10
