#package gpu 1
#suffix gpu
# variable rho equal 0.03

units lj
atom_style atomic

lattice fcc 0.975
Lattice spacing in x,y,z = 1.60085 1.60085 1.60085
region box block 0 60 0 30 0 30
create_box 2 box
Created orthogonal box = (0 0 0) to (96.0513 48.0256 48.0256)
  1 by 1 by 1 MPI processor grid
create_atoms 1 box
Created 216000 atoms
  Time spent = 0.031863 secs
mass 1 4.0
mass 2 0.5


pair_style lj/cut 2.5
pair_coeff 1 1 1.0 1.0 2.5
pair_coeff 2 2 0.5 0.88 2.5
pair_coeff 1 2 0.2 1.0 2.5
#pair_coeff 1 2 1.5 0.8 2.5
pair_modify mix geometric
neigh_modify every 1 delay 0 check yes

variable R equal 12
region cylinder1 cylinder x $(0.5*ly) $(0.5*lz) $R EDGE EDGE units box
region cylinder1 cylinder x 24.012813670346833561 $(0.5*lz) $R EDGE EDGE units box
region cylinder1 cylinder x 24.012813670346833561 24.012813670346833561 $R EDGE EDGE units box
region cylinder1 cylinder x 24.012813670346833561 24.012813670346833561 12 EDGE EDGE units box

group cylinder1 region cylinder1
41820 atoms in group cylinder1
variable V equal PI*v_R*v_R*lx
# variable rho equal 0.1
variable natoms equal $V*${rho}
variable natoms equal 43452.5639148185*${rho}
variable natoms equal 43452.5639148185*0.002
variable natoms_in_cylinder equal count(cylinder1)
variable delete_fraction equal (${natoms_in_cylinder}-${natoms})/${natoms_in_cylinder}
variable delete_fraction equal (41820-${natoms})/${natoms_in_cylinder}
variable delete_fraction equal (41820-86.905127829637)/${natoms_in_cylinder}
variable delete_fraction equal (41820-86.905127829637)/41820
set group cylinder1 type 2
  41820 settings made for type
delete_atoms porosity cylinder1 ${delete_fraction} 12345
delete_atoms porosity cylinder1 0.997921924250846 12345
Deleted 41726 atoms, new total = 174274
#delete_atoms region cylinder1

region cylinder2 cylinder x $(0.5*ly) $(0.5*lz) $(v_R+6) EDGE EDGE units box
region cylinder2 cylinder x 24.012813670346833561 $(0.5*lz) $(v_R+6) EDGE EDGE units box
region cylinder2 cylinder x 24.012813670346833561 24.012813670346833561 $(v_R+6) EDGE EDGE units box
region cylinder2 cylinder x 24.012813670346833561 24.012813670346833561 18 EDGE EDGE units box
region cylinder3 cylinder x $(0.5*ly) $(0.5*lz) $(v_R+11) EDGE EDGE units box
region cylinder3 cylinder x 24.012813670346833561 $(0.5*lz) $(v_R+11) EDGE EDGE units box
region cylinder3 cylinder x 24.012813670346833561 24.012813670346833561 $(v_R+11) EDGE EDGE units box
region cylinder3 cylinder x 24.012813670346833561 24.012813670346833561 23 EDGE EDGE units box
group cylinder2 region cylinder2
54094 atoms in group cylinder2
group cylinder3 region cylinder3
113854 atoms in group cylinder3

group nve region cylinder3
113854 atoms in group nve
group langevin subtract cylinder3 cylinder2
59760 atoms in group langevin
group frozen subtract all cylinder3
60420 atoms in group frozen

region force cylinder x $(0.5*ly) $(0.5*lz) $(v_R-1) EDGE EDGE units box
region force cylinder x 24.012813670346833561 $(0.5*lz) $(v_R-1) EDGE EDGE units box
region force cylinder x 24.012813670346833561 24.012813670346833561 $(v_R-1) EDGE EDGE units box
region force cylinder x 24.012813670346833561 24.012813670346833561 11 EDGE EDGE units box
group inner dynamic all region cylinder1 every 1
dynamic group inner defined
#group gas dynamic all region force every 1
group gas type 2
94 atoms in group gas

fix nve nve nve
fix langevin langevin langevin 0.50 0.50 1.0 12345 zero yes

variable gascount equal count(gas)

variable dP equal 0.001
variable measured_rho equal mass(gas)/(PI*(v_R-1)*(v_R-1)*lx)
variable force equal v_dP/v_measured_rho
variable force equal v_dP/v_rho

velocity all create 0.1 87287
velocity frozen set 0 0 0

compute chunk all chunk/atom bin/cylinder x lower $(lx) $(0.5*ly) $(0.5*lz) 0 $(v_R+5) 30 units box
compute chunk all chunk/atom bin/cylinder x lower 96.051254681387334244 $(0.5*ly) $(0.5*lz) 0 $(v_R+5) 30 units box
compute chunk all chunk/atom bin/cylinder x lower 96.051254681387334244 24.012813670346833561 $(0.5*lz) 0 $(v_R+5) 30 units box
compute chunk all chunk/atom bin/cylinder x lower 96.051254681387334244 24.012813670346833561 24.012813670346833561 0 $(v_R+5) 30 units box
compute chunk all chunk/atom bin/cylinder x lower 96.051254681387334244 24.012813670346833561 24.012813670346833561 0 17 30 units box

compute displacement nve displace/atom
compute mean_displacement nve reduce ave c_displacement[4]

compute vmax all reduce max vx
variable volume equal count(gas)/v_V

thermo_style custom step time temp c_mean_displacement v_volume v_force c_vmax dt spcpu cpuremain
thermo 100

compute keAtom all ke/atom
dump dump all custom 1000 trajectory_l.bin id type x y z c_keAtom

fix flow gas addforce v_force 0.0 0.0
run 5000
No /omp style for force computation currently active
Per MPI rank memory allocation (min/avg/max) = 85.69 | 85.69 | 85.69 Mbytes
Step Time Temp c_mean_displacement v_volume v_force c_vmax Dt S/CPU CPULeft 
       0            0  0.065406203            0 0.0021632786          0.5   0.74915249        0.005            0            0 
     100          0.5  0.098210643  0.056980523 0.0021632786          0.5    1.2491525        0.005    79.911597    61.317817 
     200            1   0.14557592   0.08606191 0.0021632786          0.5    1.7491525        0.005    101.43263    53.694237 
     300          1.5   0.17004399    0.1170369 0.0021632786          0.5    2.2491525        0.005    100.82871    50.588307 
     400            2    0.1878216   0.14145833 0.0021632786          0.5    2.7491525        0.005    100.67167    48.557243 
     500          2.5   0.19999833   0.15977186 0.0021632786          0.5    3.2491525        0.005    101.75084    46.846456 
     600            3   0.20806208   0.17142746 0.0021632786          0.5    3.7491525        0.005    101.81568    45.373745 
     700          3.5   0.21403834   0.17473297 0.0021632786          0.5    4.2491525        0.005    99.642865    44.172751 
     800            4   0.21942826   0.16997556 0.0021632786          0.5    4.7491525        0.005    98.622651    43.075614 
     900          4.5    0.2267987   0.15940723 0.0021632786          0.5    5.2491525        0.005     98.22565    42.015628 
    1000            5   0.23248626   0.14589974 0.0021632786          0.5    5.7491953        0.005    96.291706    41.045815 
    1100          5.5   0.23771949   0.13226361 0.0021632786          0.5    6.2480921        0.005    97.061274    40.034319 
    1200            6   0.24210945   0.12144558 0.0021632786          0.5    6.7462228        0.005    96.352117    39.043704 
    1300          6.5   0.24620235   0.11460336 0.0021632786          0.5    7.2452347        0.005    96.277141    38.048122 
    1400            7   0.24841419   0.11345602 0.0021632786          0.5    7.7082391        0.005    93.806177    37.116738 
    1500          7.5   0.25284692   0.11570819 0.0021632786          0.5    8.2082425        0.005    93.492364     36.17575 
    1600            8   0.25666301   0.11965737 0.0021632786          0.5    8.7080843        0.005    94.008734    35.206201 
    1700          8.5   0.26148696   0.12389468 0.0021632786          0.5    9.2114836        0.005    93.596491    34.234666 
    1800            9   0.26675622   0.12788587 0.0021632786          0.5    9.6666872        0.005    93.798436    33.248277 
    1900          9.5   0.27046038   0.13124251 0.0021632786          0.5    10.166687        0.005    91.606792    32.295111 
    2000           10    0.2747211    0.1347878 0.0021632786          0.5    10.666687        0.005    89.843225    31.360242 
    2100         10.5   0.27811297   0.13824829 0.0021632786          0.5    11.582909        0.005     89.03055    30.422433 
    2200           11   0.28280466   0.14315545 0.0021632786          0.5    12.082424        0.005    90.313843    29.447457 
    2300         11.5   0.28648941   0.15028589 0.0021632786          0.5    12.582424        0.005    89.340515     28.47514 
    2400           12   0.29066369   0.15791466 0.0021632786          0.5    13.082424        0.005    90.681145    27.472646 
    2500         12.5    0.2919714   0.16595858 0.0021632786          0.5    13.582424        0.005    90.081411    26.469473 
    2600           13   0.29572277   0.17288684 0.0021632786          0.5    14.082424        0.005    90.990569    25.447835 
    2700         13.5   0.29745265   0.17877369 0.0021632786          0.5    14.582424        0.005     90.41126    24.426464 
    2800           14   0.29837253   0.18399589 0.0021632786          0.5    15.082424        0.005     86.97112    23.433419 
    2900         14.5   0.30234213   0.18697155 0.0021632786          0.5    15.582424        0.005     82.33759    22.476419 
    3000           15   0.30378361   0.18990191 0.0021632786          0.5    16.135713        0.005    81.959283    21.505988 
    3100         15.5   0.30678868   0.19286216 0.0021632786          0.5    16.582424        0.005    83.218287    20.508135 
    3200           16   0.30819214   0.19563423 0.0021632786          0.5    17.082424        0.005     83.54693    19.494885 
    3300         16.5   0.31108306   0.19855975 0.0021632786          0.5    17.582424        0.005    83.597085    18.470133 
    3400           17   0.31307969   0.20213005 0.0021632786          0.5    18.082424        0.005    83.654424    17.434909 
    3500         17.5    0.3157442   0.20617588 0.0021632786          0.5    18.582557        0.005    82.976262    16.394719 
    3600           18   0.31786726    0.2111194 0.0021632786          0.5    19.086971        0.005    82.611045    15.347437 
    3700         18.5   0.31879867   0.21657326 0.0021632786          0.5    19.459023        0.005    83.210114     14.28827 
    3800           19   0.32162821   0.22187479 0.0021632786          0.5    20.790568        0.005    83.634491    13.219671 
    3900         19.5   0.32349151   0.22769318 0.0021632786          0.5    21.290568        0.005    82.094322    12.150883 
    4000           20   0.32694977   0.23340483 0.0021632786          0.5    20.688254        0.005    81.645849    11.076301 
    4100         20.5   0.32891858   0.23969098 0.0021632786          0.5    21.191879        0.005    82.752405    9.9907968 
    4200           21   0.33122381   0.24622657 0.0021632786          0.5    23.126969        0.005    81.835272    8.9020185 
    4300         21.5   0.33278493    0.2526141 0.0021632786          0.5    25.458821        0.005    82.340855    7.8058239 
    4400           22   0.33570719    0.2589638 0.0021632786          0.5    25.169764        0.005    82.498651    6.7039366 
    4500         22.5   0.33610569   0.26570189 0.0021632786          0.5    25.669764        0.005    83.129535    5.5961271 
    4600           23   0.33743267   0.27172866 0.0021632786          0.5    26.169764        0.005    82.308651    4.4852246 
    4700         23.5   0.33984572   0.27772526 0.0021632786          0.5    26.945263        0.005    82.700877    3.3695272 
    4800           24   0.34028647   0.28407082 0.0021632786          0.5    27.462194        0.005    82.147735    2.2502741 
    4900         24.5   0.34147192   0.28919386 0.0021632786          0.5    27.915438        0.005    80.722765    1.1274569 
    5000           25   0.34293698   0.29434013 0.0021632786          0.5    28.416352        0.005    79.862131            0 
Loop time of 56.4976 on 4 procs for 5000 steps with 174274 atoms

Performance: 38231.740 tau/day, 88.499 timesteps/s
211.0% CPU use with 1 MPI tasks x 4 OpenMP threads

MPI task timing breakdown:
Section |  min time  |  avg time  |  max time  |%varavg| %total
---------------------------------------------------------------
Pair    | 19.214     | 19.214     | 19.214     |   0.0 | 34.01
Neigh   | 1.0814     | 1.0814     | 1.0814     |   0.0 |  1.91
Comm    | 7.2127     | 7.2127     | 7.2127     |   0.0 | 12.77
Output  | 0.16883    | 0.16883    | 0.16883    |   0.0 |  0.30
Modify  | 25.099     | 25.099     | 25.099     |   0.0 | 44.43
Other   |            | 3.722      |            |       |  6.59

Nlocal:    174274 ave 174274 max 174274 min
Histogram: 1 0 0 0 0 0 0 0 0 0
Nghost:    66619 ave 66619 max 66619 min
Histogram: 1 0 0 0 0 0 0 0 0 0
Neighs:    0 ave 0 max 0 min
Histogram: 1 0 0 0 0 0 0 0 0 0

Total # of neighbors = 0
Ave neighs/atom = 0
Neighbor list builds = 1725
Dangerous builds = 0

reset_timestep 0
fix vx all ave/chunk 10 100000 1000000 chunk vx ave running file velocity_l.txt

fix dt all dt/reset 10 NULL NULL 0.05 units box

run 1000000
No /omp style for force computation currently active
Per MPI rank memory allocation (min/avg/max) = 95.07 | 95.07 | 95.07 Mbytes
Step Time Temp c_mean_displacement v_volume v_force c_vmax Dt S/CPU CPULeft 
       0           25   0.34293698   0.29434013 0.0021632786          0.5    28.416352  0.001740076            0            0 
     100    25.173511   0.34220195   0.29613095 0.0021632786          0.5    28.571146 0.0017286066    82.328862    12145.203 
     200    25.346526   0.34329185   0.29755996 0.0021632786          0.5    28.743681 0.0017380851    85.167701     11941.59 
     300    25.522261   0.34294616   0.29915019 0.0021632786          0.5    26.210191 0.0017888955    83.037996    11973.286 
     400    25.700839   0.34314028   0.30075226 0.0021632786          0.5    26.388769 0.0017819862    83.490917    11972.206 
     500    25.878728   0.34318685   0.30220357 0.0021632786          0.5    26.566658 0.0017751116    84.051207    11955.121 
     600    26.055931   0.34432244   0.30347487 0.0021632786          0.5    26.743862 0.0017682572    83.670445    11952.349 
     700    26.234217   0.34449148   0.30487501 0.0021632786          0.5    26.924565 0.0018541337    83.890224    11945.559 
     800    26.419099   0.34278619   0.30665874 0.0021632786          0.5     27.10153 0.0018420879    84.420173    11930.823 
     900     26.60275   0.34374367   0.30837931 0.0021632786          0.5     27.28518 0.0018297268    84.231886    11922.037 
    1000    26.785175    0.3442254   0.30989962 0.0021632786          0.5    27.467606  0.001817611    83.912966    11919.279 
    1100      26.9664   0.34475994   0.31133323 0.0021632786          0.5     27.64883 0.0018057326    83.868619    11917.377 
    1200    27.146447    0.3450112   0.31268085 0.0021632786          0.5    27.828877  0.001794084    84.724154    11905.573 
    1300    27.325339   0.34400809   0.31407247 0.0021632786          0.5     28.00777 0.0017826577    84.175154    11901.316 
    1400    27.503099   0.34541513   0.31541379 0.0021632786          0.5    28.185529 0.0017714468    84.910835    11890.157 
    1500    27.679762   0.34490065   0.31694628 0.0021632786          0.5    28.357005 0.0017607854    83.217312    11896.282 
    1600    27.855351   0.34450212   0.31826594 0.0021632786          0.5    28.532866 0.0017499463      81.7493    11914.957 
    1700    28.029865   0.34508043   0.31944949 0.0021632786          0.5    28.706858 0.0017393025    84.564388    11907.378 
    1800    28.203318    0.3448879   0.32084753 0.0021632786          0.5    28.879509 0.0017287842    83.322503    11910.283 
    1900    28.375726   0.34422619   0.32229247 0.0021632786          0.5    29.050732  0.001718362    84.362119    11904.987 
    2000    28.547079   0.34616336   0.32365308 0.0021632786          0.5    29.226719 0.0017073944    82.887616    11910.625 
    2100    28.717331    0.3448721   0.32519086 0.0021632786          0.5    29.397722  0.001696335    82.702312    11916.895 
    2200    28.886957   0.34471799    0.3266406 0.0021632786          0.5    29.432415  0.001691233    84.797209    11908.937 
    2300    29.055703    0.3457073   0.32787869 0.0021632786          0.5    29.610502 0.0016824842     83.06263    11912.251 
    2400     29.22355   0.34526332   0.32917294 0.0021632786          0.5    29.776557 0.0016736534    83.616584    11911.874 
    2500    29.390501   0.34614086   0.33038452 0.0021632786          0.5    29.943751 0.0016644446     84.35009    11907.281 
    2600    29.556531   0.34502239   0.33178892 0.0021632786          0.5    30.111063 0.0016553366    82.616431    11912.494 
    2700    29.721661   0.34653949     0.332964 0.0021632786          0.5    30.276005 0.0016463745    82.953205    11915.416 
    2800      29.8859   0.34584136    0.3342064 0.0021632786          0.5    30.440244 0.0016375458    84.334809    11911.009 
    2900    30.049262    0.3467055   0.33541263 0.0021632786          0.5    30.603476 0.0016288655    85.462121    11901.447 
    3000    30.211765   0.34679455   0.33655807 0.0021632786          0.5    30.765351 0.0016203466    83.681445     11900.72 
    3100     30.37342   0.34669803   0.33782891 0.0021632786          0.5    30.927005 0.0016119272    85.176712    11893.216 
    3200    30.534238   0.34561633   0.33909258 0.0021632786          0.5    31.087824 0.0016036375    83.863906    11891.832 
    3300    30.694234   0.34754693   0.34025261 0.0021632786          0.5    31.247819 0.0015954742    83.969899    11890.005 
    3400    30.853418   0.34518897   0.34141519 0.0021632786          0.5    31.407004 0.0015874341    84.668485    11885.336 
    3500    31.011804   0.34759853   0.34239781 0.0021632786          0.5     31.56539 0.0015795141    83.936559    11883.798 
    3600    31.169404   0.34733377   0.34341591 0.0021632786          0.5    31.722989 0.0015717113    83.323397    11884.706 
    3700    31.326228    0.3465335   0.34463254 0.0021632786          0.5    31.879813 0.0015640228    84.196056    11882.151 
    3800    31.482288   0.34598612   0.34589563 0.0021632786          0.5    32.035874 0.0015564458    83.505146    11882.243 
    3900    31.637596   0.34705183   0.34696749 0.0021632786          0.5    32.191182 0.0015489778     84.13777    11879.971 
    4000    31.792162   0.34653086    0.3479851 0.0021632786          0.5    32.345747  0.001541616    83.232142    11880.972 
    4100    31.945996    0.3469705   0.34884127 0.0021632786          0.5    32.499581  0.001534358     83.18277    11882.039 
    4200    32.099109    0.3472217   0.34980052 0.0021632786          0.5    32.652694 0.0015272015    83.965175    11880.342 
    4300     32.25151   0.34625672   0.35095306 0.0021632786          0.5    32.805096  0.001520144    83.787881    11879.252 
    4400     32.40321   0.34745959   0.35192131 0.0021632786          0.5    32.958887 0.0015130973    84.169546    11876.932 
    4500    32.554211   0.34562914   0.35300648 0.0021632786          0.5    33.109711 0.0015062505    84.060034    11875.006 
    4600    32.704531    0.3466782   0.35407094 0.0021632786          0.5    33.260023 0.0014994779    84.375661    11872.148 
    4700    32.854177   0.34602526   0.35515923 0.0021632786          0.5    33.409669 0.0014927955    84.257995    11869.712 
    4800    33.003159    0.3467149   0.35601429 0.0021632786          0.5    33.558651 0.0014862015    83.517966    11869.509 
    4900    33.151419   0.34690826   0.35696882 0.0021632786          0.5     33.75081 0.0014779015    84.034468    11867.771 
    5000    33.298941   0.34715496   0.35789968 0.0021632786          0.5    33.892257 0.0014717462    83.505146    11867.555 
    5100     33.44583   0.34592857   0.35894864 0.0021632786          0.5    34.039147 0.0014654252    84.352159    11864.955 
    5200    33.592091    0.3467204   0.35999633 0.0021632786          0.5    34.185408 0.0014591848    85.283571    11859.933 
    5300    33.737732   0.34574891   0.36115622 0.0021632786          0.5    34.331048 0.0014530234    83.547346    11859.629 
    5400     33.88276   0.34617252    0.3622287 0.0021632786          0.5    34.476076 0.0014469393    83.420444    11859.628 
    5500    34.027183   0.34653857    0.3632439 0.0021632786          0.5    34.620499 0.0014409308    84.386186    11857.102 
    5600    34.171008   0.34571597   0.36420546 0.0021632786          0.5    34.764324 0.0014349965    84.050988    11855.463 
    5700    34.314244   0.34658801   0.36510588 0.0021632786          0.5     34.90756 0.0014291348    82.811354    11856.947 
    5800    34.456896   0.34601548   0.36603848 0.0021632786          0.5    35.050212 0.0014233443    83.716186    11856.101 
    5900    34.598972   0.34540273   0.36685219 0.0021632786          0.5    35.192288 0.0014176235    82.520173     11858.16 
    6000    34.740478   0.34539075   0.36757873 0.0021632786          0.5    35.334525 0.0014119939    82.884438    11859.228 
    6100    34.881437   0.34583753   0.36835194 0.0021632786          0.5     35.47235 0.0014065367    84.855864    11855.654 
    6200    35.021789   0.34571789   0.36903923 0.0021632786          0.5    35.636172 0.0013998106    83.164083        11856 
    6300    35.161545   0.34578819   0.36964365 0.0021632786          0.5    35.768724 0.0013946125     83.42567    11855.702 
    6400    35.300763   0.34653748   0.37030443 0.0021632786          0.5    35.907942 0.0013892305    82.448929     11857.58 
    6500    35.439447   0.34598723   0.37105372 0.0021632786          0.5    36.046626 0.0013839102    84.111651    11855.699 
    6600      35.5776   0.34517685   0.37182018 0.0021632786          0.5    36.184779 0.0013786505    82.410196    11857.534 
    6700    35.715231   0.34605838   0.37237328 0.0021632786          0.5     36.32241 0.0013734503    83.759252     11856.38 
    6800    35.852344   0.34561815   0.37290179 0.0021632786          0.5    36.459523 0.0013683083    84.375509    11853.951 
    6900    35.988946   0.34604642   0.37370474 0.0021632786          0.5    36.596125 0.0013632236    83.237543     11853.89 
    7000    36.125041   0.34535965   0.37447123 0.0021632786          0.5     36.73222 0.0013581951    82.162846    11856.026 
    7100    36.260637   0.34398257   0.37526181 0.0021632786          0.5    36.867816 0.0013532218    83.327238    11855.689 
    7200    36.395737   0.34491371   0.37591424 0.0021632786          0.5    37.002916 0.0013483026    84.475142    11853.079 
    7300    36.530348   0.34561488   0.37642597 0.0021632786          0.5    37.137527 0.0013434366     84.41533    11850.622 
    7400    36.664474    0.3452247   0.37713706 0.0021632786          0.5    37.271653 0.0013386228    83.484719    11849.971 
    7500    36.798122    0.3445045   0.37795703 0.0021632786          0.5    37.405301 0.0013338604     83.59087    11849.105 
    7600    36.931296   0.34482632   0.37861814 0.0021632786          0.5    37.538475 0.0013291484    83.185327    11848.991 
    7700       37.064   0.34502151   0.37926414 0.0021632786          0.5    37.671179 0.0013244858    83.558797    11848.156 
    7800    37.196241    0.3460445   0.37981217 0.0021632786          0.5     37.80342  0.001319872    84.128218    11846.282 
    7900    37.328022   0.34482497   0.38063144 0.0021632786          0.5    37.935201  0.001315306    84.326907    11844.073 
    8000    37.459346   0.34345921   0.38158799 0.0021632786          0.5    38.067223   0.00131075    82.937245    11844.354 
    8100    37.590219   0.34296277   0.38221835 0.0021632786          0.5    38.198161 0.0013062591     82.97288    11844.535 
    8200    37.720641   0.34435602   0.38265909 0.0021632786          0.5    38.328132 0.0013017715    83.555934    11843.664 
    8300    37.850602    0.3435285    0.3832271 0.0021632786          0.5    38.463972 0.0012969308    82.803131    11844.086 
    8400    37.980034   0.34346952    0.3837832 0.0021632786          0.5    38.618196 0.0012916532    83.156614    11843.863 
    8500    38.108973   0.34404733   0.38443298 0.0021632786          0.5    38.744872 0.0012881199    84.975276    11840.615 
    8600    38.238242   0.34369499   0.38506272 0.0021632786          0.5    38.609102 0.0012935261    83.148041    11840.396 
    8700      38.3674   0.34459112   0.38578255 0.0021632786          0.5    38.738261 0.0012892233     84.03659    11838.706 
    8800     38.49613   0.34331322   0.38646736 0.0021632786          0.5    38.866991 0.0012849631    83.128826    11838.491 
    8900    38.624436   0.34414883   0.38713452 0.0021632786          0.5    38.995254 0.0012807453    83.075249     11838.34 
    9000    38.752323   0.34445068   0.38799754 0.0021632786          0.5    39.123141 0.0012765683    81.483459    11840.755 
    9100    38.879793    0.3439079   0.38868895 0.0021632786          0.5    39.250713  0.001272428    83.386495     11840.04 
    9200    39.006851   0.34521297   0.38926314 0.0021632786          0.5    39.377649 0.0012683351    83.457825    11839.204 
    9300    39.133502   0.34499275   0.39008461 0.0021632786          0.5      39.5043 0.0012642778    83.456994    11838.361 
    9400    39.259749   0.34400588   0.39114937 0.0021632786          0.5    39.630499 0.0012602597    82.760765    11838.573 
    9500    39.385594   0.34358314   0.39212348 0.0021632786          0.5    39.760376 0.0012561502    83.345335    11837.872 
    9600    39.511024   0.34431062   0.39284157 0.0021632786          0.5     39.88907 0.0012521252    82.836394    11837.921 
    9700     39.63606   0.34313018   0.39353253 0.0021632786          0.5    40.014082 0.0012482211    84.801461    11835.088 
    9800    39.760707   0.34437761   0.39402044 0.0021632786          0.5    40.139083   0.00124434    83.453009    11834.214 
    9900    39.884968   0.34413497    0.3945756 0.0021632786          0.5    40.266676 0.0012403852    84.056159    11832.473 
   10000    40.008844    0.3443336   0.39520792 0.0021632786          0.5    40.385622 0.0012367156    82.198786    11833.405 
   10100    40.132345   0.34466316   0.39589187 0.0021632786          0.5    40.509354 0.0012329398    82.724202    11833.537 
   10200    40.255471   0.34338365    0.3966522 0.0021632786          0.5    40.631866 0.0012292223    82.268565    11834.293 
   10300    40.378222   0.34378668   0.39737236 0.0021632786          0.5    40.756804 0.0012254358    82.990381    11833.994 
   10400    40.500599   0.34359157   0.39816815 0.0021632786          0.5    40.876185 0.0012218179    83.436308    11833.065 
   10500    40.622614   0.34360016   0.39885255 0.0021632786          0.5    40.999455 0.0012180894    83.595052    11831.916 
   10600    40.744258   0.34217337   0.39958588 0.0021632786          0.5    41.064631  0.001216142    82.504915    11832.242 
   10700    40.865367   0.34237314   0.40034602 0.0021632786          0.5    41.208923 0.0012074745    83.659196    11830.993 
   10800    40.985959   0.34429933   0.40090922 0.0021632786          0.5    41.334628 0.0012039169    83.795815    11829.567 
   10900    41.106201   0.34237456   0.40162224 0.0021632786          0.5    41.453517  0.001200486    83.681729    11828.292 
   11000    41.226102   0.34359542   0.40223491 0.0021632786          0.5    41.569553 0.0011971609    83.116455     11827.75 
   11100    41.345666   0.34371954   0.40283426 0.0021632786          0.5     41.68858 0.0011937772    82.006267    11828.646 
   11200    41.464892   0.34278926   0.40343206 0.0021632786          0.5    41.807975 0.0011904008    82.977362    11828.245 
   11300     41.58378   0.34272135   0.40403302 0.0021632786          0.5    41.927394 0.0011870367    84.588059    11825.822 
   11400    41.702342   0.34205836   0.40475079 0.0021632786          0.5    42.038978 0.0011838658    82.918471    11825.485 
   11500    41.820581   0.34273266    0.4053837 0.0021632786          0.5    42.157052 0.0011805828    83.003602    11825.027 
   11600    41.938492   0.34217884   0.40605841 0.0021632786          0.5      42.2747 0.0011773219    83.501439    11823.943 
   11700    42.056078   0.34305938   0.40662634 0.0021632786          0.5    42.392294 0.0011740851    83.384555        11823 
   11800    42.173342   0.34252031   0.40734202 0.0021632786          0.5    42.509644 0.0011708733    83.287179    11822.169 
   11900    42.290285   0.34246028   0.40798567 0.0021632786          0.5    42.626354 0.0011676915    83.794827    11820.728 
   12000    42.406912   0.34171945   0.40850928 0.0021632786          0.5    42.743015 0.0011645296    83.230127    11819.959 
   12100    42.523221   0.34179135   0.40905174 0.0021632786          0.5    42.858202 0.0011613831    82.714495    11819.793 
   12200    42.639218   0.34272867   0.40949177 0.0021632786          0.5    42.975859 0.0011581864    83.134231    11819.116 
   12300    42.755421   0.34285087   0.41011582 0.0021632786          0.5     42.87195   0.00115905    83.838946    11817.619 
   12400    42.871188    0.3426806   0.41072616 0.0021632786          0.5    42.988243 0.0011559746    83.282052    11816.762 
   12500    42.986647   0.34285614   0.41134066 0.0021632786          0.5    43.104203 0.0011529189     83.11578    11816.089 
   12600    43.101802   0.34310681    0.4119026 0.0021632786          0.5    43.219358 0.0011498841    82.664025    11815.923 
   12700    43.216655   0.34231003   0.41259215 0.0021632786          0.5    43.334211 0.0011468731    83.774057    11814.494 
   12800    43.331207   0.34207754   0.41324553 0.0021632786          0.5    43.448764 0.0011438856    83.462142    11813.413 
   12900    43.445462   0.34205342   0.41389467 0.0021632786          0.5    43.563019 0.0011409212    83.930983    11811.818 
   13000    43.559422   0.34295575   0.41439918 0.0021632786          0.5    43.676978 0.0011379796    83.757562    11810.417 
   13100    43.673088   0.34250785    0.4149722 0.0021632786          0.5    43.790645 0.0011350605    82.659463    11810.214 
   13200    43.786464   0.34248675   0.41555649 0.0021632786          0.5     43.90402 0.0011321638    81.701942    11811.055 
   13300    43.899551   0.34159124   0.41608954 0.0021632786          0.5    44.017107  0.001129289    84.550086    11808.807 
   13400    44.012344   0.34111169   0.41644053 0.0021632786          0.5    43.411622  0.001146937    84.033542     11807.11 
   13500    44.127007   0.34308863   0.41668995 0.0021632786          0.5    43.460335  0.001145165    84.467299    11804.973 
   13600    44.241389   0.34291257   0.41717105 0.0021632786          0.5    43.574718 0.0011421866    83.700366    11803.638 
   13700    44.355474   0.34240547   0.41769191 0.0021632786          0.5    43.688803 0.0011392312       83.931    11802.068 
   13800    44.469256   0.34160946   0.41811195 0.0021632786          0.5    43.832855 0.0011355813    84.514564    11799.916 
   13900    44.582733   0.34256633   0.41859045 0.0021632786          0.5    43.922081 0.0011332963    84.072671    11798.219 
   14000    44.695925   0.34234241   0.41919577 0.0021632786          0.5    44.037656 0.0011303117    82.545573    11798.079 
   14100    44.808827   0.34190988   0.41984882 0.0021632786          0.5    44.150282 0.0011274532      82.0758    11798.408 
   14200    44.921445   0.34244992   0.42044991 0.0021632786          0.5    44.262899   0.00112461     83.00973    11797.764 
   14300    45.033819    0.3418894   0.42109756 0.0021632786          0.5    44.415086 0.0011220061    83.864191    11796.267 
   14400    45.145873   0.34096109   0.42169994 0.0021632786          0.5    44.542918 0.0011190362    83.517983    11795.111 
   14500    45.257651   0.34208548    0.4221754 0.0021632786          0.5    44.654696 0.0011162523    81.716172     11795.75 
   14600    45.369152   0.34310852   0.42254093 0.0021632786          0.5    44.766197 0.0011134891    83.580243    11794.521 
   14700    45.480377    0.3412311   0.42310095 0.0021632786          0.5    44.877422 0.0011107462     83.19295    11793.666 
   14800    45.591329   0.34162587   0.42368282 0.0021632786          0.5    44.988374 0.0011080235    83.741074    11792.282 
   14900     45.70201   0.34128815   0.42417694 0.0021632786          0.5    45.099055 0.0011053206    84.256505    11790.418 
   15000    45.812421   0.34093633   0.42467919 0.0021632786          0.5    45.209466 0.0011026374    82.834741    11789.901 
   15100    45.922565   0.34191225   0.42503107 0.0021632786          0.5     45.31961 0.0010999736    81.927393    11790.246 
   15200    46.032443   0.34287113   0.42540936 0.0021632786          0.5    45.429488  0.001097329     83.16776    11789.392 
   15300    46.142058   0.34266049    0.4260634 0.0021632786          0.5    45.539143 0.0010947028    83.468338    11788.254 
   15400     46.25141   0.34207931   0.42671273 0.0021632786          0.5    45.648966 0.0010920896    82.411151    11788.098 
   15500    46.360503   0.34166436   0.42739289 0.0021632786          0.5    45.757821 0.0010895075    82.893726     11787.48 
   15600    46.469338   0.34151029   0.42798486 0.0021632786          0.5    45.866656 0.0010869373    84.225695     11785.65 
   15700    46.577916   0.34177622   0.42853237 0.0021632786          0.5    45.975235 0.0010843852    82.230355    11785.635 
   15800    46.686241   0.34232437   0.42909027 0.0021632786          0.5    46.083559  0.001081851    83.448559    11784.499 
   15900    46.794313   0.34189722   0.42955909 0.0021632786          0.5    46.191631 0.0010793344    83.578361    11783.247 
   16000    46.902133   0.34211736   0.42998215 0.0021632786          0.5    46.299452 0.0010768353     82.52834    11782.931 
   16100    47.009705   0.34162963   0.43059742 0.0021632786          0.5    46.407024 0.0010743534     84.22123    11781.116 
   16200    47.117029   0.34122546   0.43113089 0.0021632786          0.5    46.514348 0.0010718886    83.883127      11779.6 
   16300    47.224108   0.34240161   0.43156768 0.0021632786          0.5    46.621426 0.0010694406    83.535415    11778.387 
   16400    47.330942   0.34054984   0.43204846 0.0021632786          0.5    46.728261 0.0010670093    82.549927    11778.031 
   16500    47.437534   0.34143644   0.43237929 0.0021632786          0.5    46.835991 0.0010645611    84.016743    11776.404 
   16600    47.543885   0.34222155   0.43267333 0.0021632786          0.5    46.940152 0.0010622048     82.80936    11775.811 
   16700    47.649998   0.34240548   0.43307716 0.0021632786          0.5    47.046265 0.0010598223    82.634856     11775.36 
   16800    47.755873   0.34165069   0.43354786 0.0021632786          0.5    47.152141 0.0010574558    83.154553    11774.458 
   16900    47.861513   0.34017301   0.43405421 0.0021632786          0.5    47.257781  0.001055105    84.568531    11772.383 
   17000    47.966918   0.34113673   0.43451688 0.0021632786          0.5    47.362649 0.0010527984    81.597753    11772.807 
   17100    48.072094   0.34131374   0.43483976 0.0021632786          0.5    47.467824 0.0010504784    83.080005    11771.955 
   17200    48.177038   0.34125077   0.43515782 0.0021632786          0.5    47.572768 0.0010481736    83.119239    11771.067 
   17300    48.281752    0.3417729   0.43547464 0.0021632786          0.5    47.677483 0.0010458839    83.103066    11770.188 
   17400    48.386238   0.34122577   0.43586255 0.0021632786          0.5    47.782106 0.0010436047    83.751324     11768.78 
   17500    48.490496   0.34106158   0.43641174 0.0021632786          0.5     47.88571 0.0010413486    82.506749    11768.385 
   17600    48.594527    0.3416385   0.43692827 0.0021632786          0.5    47.989751 0.0010390603    83.641345    11767.064 
   17700    48.698331   0.34029643   0.43747484 0.0021632786          0.5    48.101762 0.0010365624    84.529706    11765.046 
   17800    48.801989   0.34028171   0.43784308 0.0021632786          0.5    48.251053 0.0010347635    83.742278    11763.652 
   17900    48.905373   0.34252678    0.4380565 0.0021632786          0.5    48.364171 0.0010326371    83.376417    11762.547 
   18000    49.008527   0.34131661   0.43846683 0.0021632786          0.5    48.389777 0.0010323115    84.682246    11760.433 
   18100    49.111456   0.34159689   0.43889243 0.0021632786          0.5    48.609872 0.0010279385    82.597054    11759.945 
   18200    49.216453   0.34147226   0.43935006 0.0021632786          0.5    39.401637 0.0010505429    84.861117    11757.708 
   18300    49.321421    0.3418781   0.43968507 0.0021632786          0.5     39.50664 0.0010486282    84.314889    11755.891 
   18400    49.426198   0.34172321   0.43995679 0.0021632786          0.5    39.611417 0.0010467216    83.596952    11754.625 
   18500    49.530785   0.34311798   0.44026236 0.0021632786          0.5    39.716003 0.0010448239    83.481794    11753.447 
   18600    49.635182   0.34245644   0.44073788 0.0021632786          0.5    39.820401 0.0010429349    83.758047    11752.061 
   18700    49.739391   0.34082594   0.44130573 0.0021632786          0.5    39.924609 0.0010410545    84.079328    11750.437 
   18800    49.843412   0.34074748   0.44163134 0.0021632786          0.5    40.028631 0.0010391828    84.707215    11748.357 
   18900    49.947243   0.34126076   0.44185776 0.0021632786          0.5    40.129425 0.0010369288    84.222228     11746.64 
   19000    50.089243   0.34205464   0.44209414 0.0021632786          0.5    23.946117 0.0016422155     85.86146    11743.759 
   19100    50.251538   0.34050618   0.44275915 0.0021632786          0.5    24.108412 0.0016210402    83.983703    11742.232 
   19200    50.413604   0.34083772   0.44339768 0.0021632786          0.5    24.270477 0.0016199361    83.751408    11740.878 
   19300    50.591028   0.34023121   0.44424017 0.0021632786          0.5    24.448438 0.0020335953    85.044643    11738.603 
   19400    50.793639   0.33978806   0.44508297 0.0021632786          0.5     24.68685 0.0020141617    82.654935    11738.057 
   19500    50.997223   0.33949831   0.44607974 0.0021632786          0.5    24.153583 0.0020304887    83.318332     11737.02 
   19600    51.206252   0.34005443   0.44723014 0.0021632786          0.5    19.833016 0.0021586289     83.96884    11735.517 
   19700    51.421687   0.33949554   0.44833311 0.0021632786          0.5    19.888038 0.0021454552    83.004424    11734.705 
   19800    51.667944   0.33988291   0.44966468 0.0021632786          0.5    14.640203 0.0027303894    85.794422     11731.95 
   19900    51.941779   0.33925315   0.45124325 0.0021632786          0.5    14.914038 0.0027470982    86.544431    11728.713 
   20000    52.217173   0.34035476   0.45242558 0.0021632786          0.5    15.190412 0.0027623587    86.724468     11725.38 
   20100     52.49409   0.34073128   0.45369601 0.0021632786          0.5    15.466214 0.0027774377    85.614028    11722.797 
   20200    52.777252   0.33961955   0.45507892 0.0021632786          0.5    15.749481 0.0029451891     85.81798    11720.094 
   20300    53.070474   0.33978161   0.45654088 0.0021632786          0.5    16.044208 0.0031133225     83.88551    11718.701 
   20400    53.372422   0.34004776   0.45805216 0.0021632786          0.5    16.343589  0.003056227    83.458721    11717.603 
   20500    53.676151   0.34052325   0.45919058 0.0021632786          0.5    15.424271 0.0030766326    83.794124    11716.275 
   20600    53.982173   0.34075985   0.46038499 0.0021632786          0.5    15.389429 0.0030397979    83.126009    11715.404 
   20700    54.284498   0.33968983    0.4617183 0.0021632786          0.5    15.681568 0.0030031747    83.812392    11714.064 
   20800    54.583196   0.33927928   0.46290546 0.0021632786          0.5    15.980948 0.0029673223    84.213722    11712.458 
   20900    54.878332   0.33864814   0.46419699 0.0021632786          0.5    16.276557 0.0029290077    83.951781    11711.029 
   21000    55.174803   0.33867889   0.46525908 0.0021632786          0.5    16.573862  0.002971406    84.245285    11709.409 
   21100    55.469619   0.33813778   0.46683293 0.0021632786          0.5    16.881521 0.0029189637    84.179682    11707.836 
   21200    55.759336   0.33942998   0.46807443 0.0021632786          0.5    17.172583 0.0028710919    84.323856    11706.173 
   21300    56.044374   0.33861355   0.46959964 0.0021632786          0.5    17.457622 0.0028254793    83.799264    11704.856 
   21400    56.324947   0.33823146   0.47090084 0.0021632786          0.5    17.738195 0.0027819564    82.832124    11704.177 
   21500    56.601256   0.33924769   0.47204189 0.0021632786          0.5    18.014504  0.002740369    83.627987     11702.97 
   21600    56.873488   0.33975885   0.47329743 0.0021632786          0.5    18.286736 0.0027005786    83.234289    11702.019 
   21700    57.141817   0.33770055   0.47469007 0.0021632786          0.5    18.555065 0.0026624599    82.561724    11701.507 
   21800    57.406404   0.33883391   0.47581319 0.0021632786          0.5    18.817726  0.002625979     84.31916    11699.856 
   21900     57.66741   0.33960724   0.47707915 0.0021632786          0.5    19.078733 0.0025908733     84.47766     11698.11 
   22000    57.924968   0.33876466   0.47865102 0.0021632786          0.5    19.336291 0.0025571294    82.918389    11697.359 
   22100     58.17921   0.33869584   0.48002992 0.0021632786          0.5    19.590532 0.0025246617    83.744669    11696.077 
   22200    58.430259   0.33797997   0.48133791 0.0021632786          0.5    19.841582 0.0024933921    83.898732    11694.699 
   22300    58.678233   0.33953868   0.48222178 0.0021632786          0.5    20.089556  0.002463249    83.241772    11693.735 
   22400    58.923241   0.33922468   0.48305365 0.0021632786          0.5    20.334563 0.0024341665    84.170897    11692.191 
   22500    59.165386   0.33909501   0.48421336 0.0021632786          0.5    20.576708 0.0024060842    83.912479    11690.808 
   22600    59.404703   0.34017799   0.48518361 0.0021632786          0.5    20.167538 0.0024145029    83.735055    11689.537 
   22700      59.6442   0.33962516    0.4863826 0.0021632786          0.5    20.352585  0.002380199    85.708517    11687.082 
   22800    59.881055     0.339483   0.48751938 0.0021632786          0.5     20.58944 0.0023544691    84.215988    11685.525 
   22900    60.115373   0.33845756   0.48881911 0.0021632786          0.5    20.826748 0.0023291151    83.757495    11684.248 
   23000    60.358175   0.33895527   0.48971431 0.0021632786          0.5    16.609046 0.0026720002    84.952902    11682.258 
   23100     60.62879   0.34001482   0.49036185 0.0021632786          0.5    16.879661 0.0027293559    83.599668    11681.082 
   23200    60.900058   0.33822327   0.49152929 0.0021632786          0.5    17.147071 0.0026927374    84.887257    11679.141 
   23300     61.16772   0.33992498   0.49255524 0.0021632786          0.5    17.385478 0.0026581344    84.654369    11677.342 
   23400    61.432506   0.33820355   0.49411037 0.0021632786          0.5    17.942514 0.0026307618    84.548006    11675.611 
   23500    61.708135   0.33915942   0.49520367 0.0021632786          0.5    15.450593 0.0029703632    85.112897    11673.559 
   23600    62.004175   0.33738299   0.49652822 0.0021632786          0.5    15.746633 0.0029488604    84.177063    11672.054 
   23700       62.298   0.34018586    0.4973598 0.0021632786          0.5    16.040458 0.0029240546    84.064279    11670.618 
   23800    62.600974   0.33907979   0.49907957 0.0021632786          0.5    16.343433 0.0030317552    84.684195    11668.826 
   23900    62.901704   0.33945416   0.50036532 0.0021632786          0.5    16.644162 0.0029779339    84.315041    11667.251 
   24000    63.197178   0.33824456   0.50179102 0.0021632786          0.5    16.939636 0.0029268669    83.140163     11666.36 
   24100    63.487641   0.33829716   0.50303779 0.0021632786          0.5    17.230713 0.0028781734    83.542187    11665.233 
   24200    63.773338   0.33895754   0.50422859 0.0021632786          0.5    17.542522 0.0028281443    83.654991     11664.04 
   24300    64.054184   0.33898469   0.50566913 0.0021632786          0.5    17.822358 0.0027845423    84.300112    11662.479 
   24400    64.330736   0.33862768   0.50691655 0.0021632786          0.5     18.09891 0.0027426125    83.456014    11661.402 
   24500    64.603178   0.33765614   0.50828031 0.0021632786          0.5    18.371352 0.0027025137        83.07    11660.545 
   24600    64.871686   0.33926049   0.50922796 0.0021632786          0.5    18.642621 0.0026637048    83.898665    11659.213 
   24700    65.136385   0.33798338   0.51068842 0.0021632786          0.5    18.900655 0.0026273257    83.287261    11658.229 
   24800     65.39749   0.33800788   0.51199037 0.0021632786          0.5    19.165271 0.0025909265     82.81415    11657.512 
   24900    65.655346   0.33793205   0.51291337 0.0021632786          0.5    19.494198  0.002559478    84.337793    11655.937 
   25000    65.909787   0.33809967   0.51376284 0.0021632786          0.5    19.729317 0.0025299709    83.435063    11654.866 
   25100     66.16377   0.33911048   0.51451368 0.0021632786          0.5    19.263199 0.0025852918    84.110504     11653.42 
   25200    66.420759   0.33843334   0.51561561 0.0021632786          0.5    19.520342 0.0025513365    84.425389    11651.804 
   25300    66.674388   0.33822845   0.51681195 0.0021632786          0.5    19.773776 0.0025181184    84.031623    11650.406 
   25400    66.924794   0.33731411   0.51790735 0.0021632786          0.5    20.026012 0.0024851737    83.324523    11649.396 
   25500    67.173949   0.33822962    0.5188723 0.0021632786          0.5    16.506699 0.0025068325    84.673578    11647.655 
   25600    67.423399   0.33906134   0.51947996 0.0021632786          0.5    16.756173 0.0025024001    83.337072    11646.638 
   25700    67.695037   0.33958673   0.51993699 0.0021632786          0.5    13.870977 0.0027849598    84.212657    11645.148 
   25800    67.972782   0.33830213   0.52090611 0.0021632786          0.5    13.679931  0.002768221    84.643196    11643.431 
   25900    68.248792   0.33850573   0.52191516 0.0021632786          0.5    13.955941 0.0027425739    82.736734    11642.743 
   26000    68.555051   0.33846381   0.52312159 0.0021632786          0.5    14.262199 0.0031477527    84.794912    11640.952 
   26100    68.871017   0.33728895   0.52429703 0.0021632786          0.5    14.578166 0.0031741447    86.057412    11638.519 
   26200    69.191957   0.33703875   0.52539829 0.0021632786          0.5    14.899105  0.003287754    86.646016    11635.803 
   26300    69.521066   0.33761244   0.52655809 0.0021632786          0.5    15.228215 0.0032813784    85.784701    11633.528 
   26400    69.846086   0.33769126   0.52745401 0.0021632786          0.5    15.553235 0.0032128876      82.3665    11633.045 
   26500    70.164446    0.3375863    0.5282425 0.0021632786          0.5    15.871595  0.003148515    82.063065    11632.722 
   26600    70.476539   0.33796962   0.52957416 0.0021632786          0.5    16.183688 0.0030878638    82.832255    11631.978 
   26700    70.782721   0.33791089   0.53080795 0.0021632786          0.5     16.48987 0.0030305888    82.452398    11631.433 
   26800    71.083317   0.33755644   0.53236462 0.0021632786          0.5    16.790466 0.0029763878    80.495281    11631.954 
   26900    71.378621   0.33794305   0.53377448 0.0021632786          0.5     17.08577 0.0029249953    81.275306    11632.031 
   27000    71.668903    0.3375527   0.53496147 0.0021632786          0.5    17.376052 0.0028761767    81.689928    11631.873 
   27100    71.954412   0.33787515   0.53617399 0.0021632786          0.5    17.661561 0.0028297243    82.702997    11631.169 
   27200    72.235375   0.33656272   0.53739205 0.0021632786          0.5    17.942609 0.0027854363    84.120777    11629.732 
   27300    72.512004   0.33740486   0.53850116 0.0021632786          0.5    18.219009 0.0027432121    84.186221    11628.264 
   27400    72.784493   0.33809122   0.53929235 0.0021632786          0.5    18.491498 0.0027028223    83.770326    11627.007 
   27500    73.053021   0.33655524   0.54064351 0.0021632786          0.5    18.760027 0.0026641658    83.987604    11625.642 
   27600    73.317758    0.3374089    0.5414964 0.0021632786          0.5    19.025036 0.0026270813    84.957135    11623.799 
   27700    73.578815   0.33811282   0.54253785 0.0021632786          0.5    19.289673 0.0025911389    83.608616    11622.627 
   27800    73.835502   0.33727343   0.54401411 0.0021632786          0.5    19.579606 0.0025357673    85.402939    11620.577 
   27900    74.087638   0.33683786   0.54548161 0.0021632786          0.5    19.831742 0.0025039704    85.685177    11618.398 
   28000    74.336647   0.33596178   0.54705767 0.0021632786          0.5    20.080751 0.0024733356    82.882374    11617.597 
   28100    74.582642   0.33687166   0.54820571 0.0021632786          0.5    20.326746 0.0024437941    84.079328    11616.198 
   28200    74.825731   0.33629166   0.54973671 0.0021632786          0.5    20.569835 0.0024152824    84.676518    11614.512 
   28300    75.066011   0.33693379   0.55098729 0.0021632786          0.5    20.810466 0.0023876965    84.955207    11612.697 
   28400    75.303564   0.33629793   0.55242726 0.0021632786          0.5    21.050276 0.0023608049    84.536129    11611.086 
   28500    75.538483   0.33517686    0.5538766 0.0021632786          0.5    21.283026 0.0023353882    82.137279    11610.655 
   28600    75.770941   0.33744518   0.55485829 0.0021632786          0.5    21.507463 0.0023114697    80.582643    11611.017 
   28700    76.001018   0.33653264   0.55589606 0.0021632786          0.5    21.734023 0.0022877067    80.925408     11611.19 
   28800    76.228697   0.33710629   0.55687635 0.0021632786          0.5    21.967383 0.0022633282    80.625457    11611.507 
   28900    76.454008   0.33815209   0.55756776 0.0021632786          0.5    22.191843 0.0022406712    79.792152     11612.25 
   29000    76.677077   0.33762504   0.55846694 0.0021632786          0.5    22.414912 0.0022186138    80.569594    11612.573 
   29100    76.897969   0.33728517   0.55950124 0.0021632786          0.5    22.635804 0.0021971932    77.223186    11614.681 
   29200    77.116747   0.33768038   0.56029059 0.0021632786          0.5    22.854582 0.0021763793    78.121451     11616.27 
   29300    77.333463    0.3386233   0.56098468 0.0021632786          0.5    23.080186 0.0021551011    84.242595    11614.758 
   29400    77.548143   0.33735003   0.56183957 0.0021632786          0.5    23.282324 0.0021362439     84.06647     11613.33 
   29500    77.760902   0.33868102   0.56278174 0.0021632786          0.5    23.495083 0.0021170997    83.189683    11612.317 
   29600    77.971769   0.33759122   0.56401461 0.0021632786          0.5     23.70595 0.0020984596    84.422382    11610.727 
   29700    78.180794   0.33774296   0.56535383 0.0021632786          0.5    23.914975 0.0020803018     83.89749    11609.381 
   29800    78.388024   0.33833906   0.56643878 0.0021632786          0.5    24.122205  0.002062606    83.361039    11608.286 
   29900    78.593505   0.33886332    0.5674018 0.0021632786          0.5    24.327686 0.0020453529     80.68902     11608.48 
   30000    78.797279   0.33990116   0.56810925 0.0021632786          0.5     24.53146 0.0020285244    73.719783    11612.452 
   30100     78.99939   0.33817745    0.5688464 0.0021632786          0.5     24.73357 0.0020121034      72.9804    11616.832 
   30200    79.199873   0.33846005    0.5695234 0.0021632786          0.5    24.934271 0.0019960471    82.178252    11616.248 
   30300    79.398771   0.33849642   0.57041525 0.0021632786          0.5    25.133169 0.0019803942    81.994628    11615.748 
   30400    79.596119   0.33863459   0.57113366 0.0021632786          0.5    25.330517 0.0019651029     82.94597    11614.797 
   30500    79.791954   0.33787458   0.57206791 0.0021632786          0.5    25.526352 0.0019501595    83.585973    11613.551 
   30600     79.98631   0.33828158   0.57280811 0.0021632786          0.5    25.720708  0.001935551    83.272065    11612.448 
   30700     80.17922   0.33870338   0.57351744 0.0021632786          0.5    25.913618 0.0019212651    83.012769    11611.462 
   30800    80.370715   0.33891227   0.57444944 0.0021632786          0.5    26.105113 0.0019072901    81.473155    11611.192 
   30900    80.560781   0.33865673   0.57524089 0.0021632786          0.5    26.296689 0.0018936151    83.944035    11609.782 
   31000    80.749745   0.33821738   0.57605361 0.0021632786          0.5    26.460316 0.0018784744    83.250215    11608.684 
   31100    80.937005   0.33799704   0.57705159 0.0021632786          0.5    26.648345 0.0018653856    82.237724    11608.046 
   31200    81.122961   0.33785224   0.57787216 0.0021632786          0.5    26.835245 0.0018526668    83.351397      11606.9 
   31300    81.307661   0.33912635   0.57864843 0.0021632786          0.5    27.020615  0.001840121     83.41112    11605.727 
   31400    81.491118   0.33784253   0.57956801 0.0021632786          0.5    27.203972 0.0018278691    83.498862    11604.515 
   31500    81.673359    0.3389504   0.58027232 0.0021632786          0.5    27.385695  0.001815862    83.251338    11603.413 
   31600    81.854412   0.33877477    0.5808001 0.0021632786          0.5    27.566936 0.0018040525    84.165442     11601.91 
   31700    82.034293   0.33954736    0.5813535 0.0021632786          0.5     27.74792 0.0017924036    83.231795    11600.816 
   31800    82.216565   0.33972274   0.58216124 0.0021632786          0.5    25.669342 0.0018437327    84.704409    11599.086 
   31900    82.407692   0.33880464   0.58309826 0.0021632786          0.5     25.86102 0.0019117875     84.54937    11597.425 
   32000    82.598256   0.34072832   0.58367553 0.0021632786          0.5    26.051217 0.0018981213    82.080233    11596.843 
   32100    82.787428    0.3404929   0.58455639 0.0021632786          0.5    26.242816  0.001883671    83.066759    11595.821 
   32200    82.975398   0.33941312   0.58569371 0.0021632786          0.5    26.382006 0.0018728403    81.938868    11595.295 
   32300    83.162147   0.33973356   0.58656788 0.0021632786          0.5    26.558318 0.0018604624    82.293083    11594.608 
   32400    83.347628   0.34062417   0.58739475 0.0021632786          0.5    26.750328 0.0018472919    82.508047    11593.824 
   32500    83.531795   0.33953322   0.58834379 0.0021632786          0.5     26.90706 0.0018364598    83.539824     11592.59 
   32600    83.720332   0.33998764    0.5894122 0.0021632786          0.5    20.113959 0.0018666154    83.582325     11591.34 
   32700    83.906561    0.3395227   0.59058239 0.0021632786          0.5    20.299028 0.0018569731    83.342934    11590.191 
   32800    84.091815   0.33912277    0.5917231 0.0021632786          0.5    20.484722 0.0018462348    83.096217    11589.147 
   32900    84.293186   0.33974292   0.59247588 0.0021632786          0.5    19.563507 0.0021362011    85.363431    11587.162 
   33000    84.506772   0.34033481   0.59343139 0.0021632786          0.5    19.782171 0.0021343752    84.004022    11585.738 
   33100    84.727653   0.34076128   0.59415188 0.0021632786          0.5    19.996776 0.0024996152    83.382467    11584.574 
   33200    84.976233    0.3395131   0.59535213 0.0021632786          0.5    20.244755  0.002469009    83.570534    11583.332 
   33300    85.221777   0.33841223   0.59690222 0.0021632786          0.5    20.491523 0.0024392412    83.499078    11582.119 
   33400    85.464431   0.33901753   0.59816044 0.0021632786          0.5    20.730408 0.0024111422    84.627792    11580.445 
   33500    85.704284   0.33971554   0.59937792 0.0021632786          0.5    20.973495 0.0023831768    82.960211    11579.458 
   33600    85.941405   0.33971096     0.600553 0.0021632786          0.5    21.210591 0.0023564733    83.306748    11578.326 
   33700    86.175919   0.33923036   0.60186509 0.0021632786          0.5    21.441523 0.0023310563    84.766739    11576.601 
   33800    86.404906   0.33922714   0.60296877 0.0021632786          0.5    20.308813 0.0022553181    85.478336    11574.599 
   33900      86.6295   0.34146468   0.60380611 0.0021632786          0.5    20.533406 0.0022345625    84.954553    11572.806 
   34000    86.852041   0.34008935   0.60482198 0.0021632786          0.5    20.755948 0.0022143354    83.833047    11571.465 
   34100    87.072584   0.33997623   0.60584652 0.0021632786          0.5     20.97649 0.0021946158    83.333959    11570.327 
   34200    87.291176   0.34023621   0.60685755 0.0021632786          0.5    21.195082 0.0021753838    84.828216    11568.592 
   34300    87.507866   0.33936674   0.60794657 0.0021632786          0.5    21.411772 0.0021566204    83.946068    11567.209 
   34400      87.7227   0.33938576   0.60897537 0.0021632786          0.5    21.626607 0.0021383076    83.286633    11566.092 
   34500    87.935722   0.33936737   0.60999273 0.0021632786          0.5    21.845025 0.0021198687    83.983215    11564.695 
   34600    88.146775   0.33955946   0.61091764 0.0021632786          0.5    22.079988 0.0021011427    84.159717     11563.23 
   34700    88.356116   0.33866659    0.6118928 0.0021632786          0.5    22.290165 0.0020835368    84.104921    11561.788 
   34800    88.570499   0.33938155    0.6127943 0.0021632786          0.5    22.405484 0.0021555848    85.418766    11559.841 
   34900    88.785316   0.33920998   0.61399881 0.0021632786          0.5    22.605704  0.002136999    82.750283    11558.941 
   35000    88.998334   0.33972659   0.61477112 0.0021632786          0.5    22.798295 0.0021195601     82.31361    11558.217 
   35100    89.209746   0.33864539   0.61588618 0.0021632786          0.5     23.07589 0.0021019843    83.312225     11557.09 
   35200    89.426346   0.33954936   0.61716457 0.0021632786          0.5    18.184237 0.0021750065    84.386118    11555.543 
   35300    89.643118   0.33975171    0.6181913 0.0021632786          0.5     18.40101 0.0021588675    83.186993    11554.466 
   35400    89.858289   0.33935486   0.61912639 0.0021632786          0.5    18.616181 0.0021430149    84.376731    11552.926 
   35500    90.071887   0.33951142   0.61989646 0.0021632786          0.5    18.829779 0.0021274423     83.36195     11551.78 
   35600    90.283941   0.33949812   0.62053384 0.0021632786          0.5    19.041833 0.0021121431    83.547429    11550.561 
   35700    90.494476    0.3394725   0.62140559 0.0021632786          0.5    19.252368 0.0020971113    83.360707    11549.415 
   35800    90.703512   0.33938872   0.62246339 0.0021632786          0.5    19.467067 0.0020802051    83.723188    11548.129 
   35900    90.920381   0.33949967   0.62365447 0.0021632786          0.5    21.632196 0.0021709091    85.014425    11546.356 
   36000    91.136614   0.33947122   0.62471252 0.0021632786          0.5    21.848419 0.0021519279    83.915921    11544.999 
   36100    91.355354   0.34042594   0.62547991 0.0021632786          0.5    17.559743 0.0024166214    83.474617    11543.811 
   36200     91.59635   0.34004892   0.62655424 0.0021632786          0.5    17.831107 0.0023974206    84.170627    11542.359 
   36300    91.835584   0.33925267   0.62795517 0.0021632786          0.5    19.993215 0.0023632228    84.885385    11540.642 
   36400    92.098478   0.34110938   0.62869432 0.0021632786          0.5    18.283969 0.0026465645    85.001487    11538.887 
   36500    92.362619   0.34009391   0.62965211 0.0021632786          0.5     18.54644 0.0026343252    83.420444    11537.723 
   36600    92.625417   0.34031625   0.63101634 0.0021632786          0.5    18.815057 0.0026128874    82.305469    11536.986 
   36700    92.885572   0.33978879   0.63222393 0.0021632786          0.5     19.02958 0.0025833901    82.744749    11536.078 
   36800    93.143559   0.33981978   0.63352942 0.0021632786          0.5    18.414225 0.0025806163    83.665554    11534.819 
   36900    93.400166   0.33990786   0.63472232 0.0021632786          0.5    18.670833  0.002548516    82.876135    11533.858 
   37000    93.653606   0.33888247   0.63593429 0.0021632786          0.5    18.928073 0.0025166924    82.362554    11533.092 
   37100     93.90914   0.33927965    0.6369509 0.0021632786          0.5    19.052294 0.0025563647     85.46132    11531.181 
   37200     94.16307   0.33835156   0.63810307 0.0021632786          0.5    19.306224 0.0025093497     82.89502    11530.211 
   37300    94.412953   0.33989637   0.63915728 0.0021632786          0.5    19.556107  0.002485471    84.536998    11528.635 
   37400    94.660436   0.33899571    0.6404498 0.0021632786          0.5     19.80359 0.0025229502    83.621968    11527.394 
   37500    94.911303   0.33991443    0.6416285 0.0021632786          0.5    20.054457 0.0024914351    82.705672    11526.494 
   37600    95.159071   0.33967177   0.64282782 0.0021632786          0.5    20.302225 0.0024610722    83.078902    11525.453 
   37700    95.403852   0.33978373   0.64404474 0.0021632786          0.5    20.547006  0.002431793    82.941853    11524.462 
   37800    95.645751   0.34041136   0.64503372 0.0021632786          0.5    20.788905 0.0024035344    84.024502    11523.074 
   37900    95.884863    0.3400585   0.64602501 0.0021632786          0.5    21.035543 0.0023754115     82.87846    11522.105 
   38000    96.133858   0.33928064   0.64729651 0.0021632786          0.5    17.150542 0.0027450036     83.10142    11521.053 
   38100    96.406719   0.33968414   0.64843716 0.0021632786          0.5    17.411165 0.0027086832    81.699348    11520.522 
   38200    96.675995     0.339233   0.64964142 0.0021632786          0.5    17.666036 0.0026735366     83.65359    11519.267 
   38300    96.941793   0.33912868   0.65036211 0.0021632786          0.5    17.983917 0.0026394911    83.927104    11517.914 
   38400    97.204273   0.33871077   0.65138259 0.0021632786          0.5    17.398568 0.0026069273    82.545102    11517.062 
   38500    97.463534   0.33929592   0.65223226 0.0021632786          0.5    17.657829 0.0025753068    83.872979    11515.729 
   38600    97.719681   0.33903669   0.65331139 0.0021632786          0.5    17.913976 0.0025447344     83.54688    11514.513 
   38700    97.972815   0.33861376   0.65417523 0.0021632786          0.5    18.167409 0.0025151134    82.851955    11513.546 
   38800    98.222978   0.33983058   0.65541146 0.0021632786          0.5    18.431332 0.0024834969    82.180135    11512.822 
   38900     98.47773   0.33917821   0.65694886 0.0021632786          0.5    18.412154 0.0025913713    84.259214    11511.354 
   39000    98.732965   0.33815904    0.6586087 0.0021632786          0.5    18.684785 0.0025531233    84.599934     11509.77 
   39100    98.990803   0.33967881   0.65971063 0.0021632786          0.5     18.92812 0.0026403324    82.169461    11509.046 
   39200    99.253066   0.33988745   0.66100376 0.0021632786          0.5    19.197755 0.0026028007    84.233594     11507.59 
   39300    99.516489   0.33822052   0.66256697 0.0021632786          0.5    16.567341 0.0027623856    83.899084     11506.25 
   39400    99.791832   0.33869795   0.66345873 0.0021632786          0.5    16.843439  0.002739378    82.855261    11505.278 
   39500    100.06487   0.33961873   0.66436221 0.0021632786          0.5    17.121313 0.0027190811    82.995948    11504.254 
   39600    100.33582   0.33861417   0.66572605 0.0021632786          0.5    17.393457 0.0026979451     83.10384    11503.192 
   39700    100.60467   0.33853883   0.66718191 0.0021632786          0.5    17.661399 0.0026768965    83.316462    11502.054 
   39800    100.87134   0.34023141    0.6685515 0.0021632786          0.5    17.931422 0.0027798498    83.426484    11500.878 
   39900    101.15189   0.33970058   0.67018904 0.0021632786          0.5    16.336687 0.0029989053    86.016255    11498.834 
   40000    101.44991    0.3404788   0.67131907 0.0021632786          0.5    16.634703 0.0029555173    83.239823    11497.724 
   40100    101.74425   0.33949308   0.67278376 0.0021632786          0.5    16.929081 0.0029349779    83.016219    11496.692 
   40200    102.03579   0.33976821   0.67388064 0.0021632786          0.5    17.220596 0.0028917557    83.002567    11495.663 
   40300    102.32308   0.34058057   0.67465881 0.0021632786          0.5    17.508023 0.0028502079    83.166029    11494.578 
   40400    102.60613   0.33976971   0.67607763 0.0021632786          0.5    17.790892 0.0028059442    83.638677     11493.33 
   40500    102.88473   0.33973251   0.67706966 0.0021632786          0.5    18.074161 0.0027620959    83.285244    11492.203 
   40600    103.15909   0.34021272   0.67779882 0.0021632786          0.5    18.347452 0.0027210506    84.341134     11490.72 
   40700    103.42942   0.33854496   0.67929617 0.0021632786          0.5    18.617258 0.0026817216    83.332088    11489.577 
   40800    103.69569   0.34053035   0.68042286 0.0021632786          0.5    18.890855 0.0026442219    81.714708    11488.992 
   40900    103.95849   0.34018996   0.68181965 0.0021632786          0.5    19.155285 0.0026076856    83.138993    11487.912 
   41000    104.21771   0.34115576   0.68307676 0.0021632786          0.5    19.412284 0.0025730238    83.761426    11486.623 
   41100    104.47332    0.3411447   0.68420329 0.0021632786          0.5    19.674421 0.0025380769     82.82671    11485.648 
   41200    104.72576   0.34015289   0.68545787 0.0021632786          0.5    19.871113 0.0025142904    83.003044    11484.613 
   41300    104.97486   0.34028729   0.68672433 0.0021632786          0.5    20.206829 0.0024734421    83.679275    11483.351 
   41400    105.22082   0.33967606   0.68778788 0.0021632786          0.5    20.454496 0.0024434835    83.962704    11481.995 
   41500     105.4639   0.34020305   0.68846512 0.0021632786          0.5    20.690664 0.0024155005    83.913738    11480.657 
   41600    105.70397   0.33985634   0.68906159 0.0021632786          0.5    20.948521  0.002385386    83.813933    11479.352 
   41700    105.94128   0.34102395   0.68988928 0.0021632786          0.5    21.207967 0.0023570882    83.501389     11478.15 
   41800    106.17582   0.33948908   0.69091979 0.0021632786          0.5    21.440144 0.0023315778    84.512418     11476.62 
   41900    106.40782   0.33862724   0.69169471 0.0021632786          0.5    21.688726 0.0023046307    84.770336    11475.009 
   42000    106.63953   0.33998208   0.69220711 0.0021632786          0.5    20.062671 0.0023072998     82.70895    11474.071 
   42100    106.86923   0.34020206   0.69320989 0.0021632786          0.5    20.324184 0.0022809341    84.238043    11472.632 
   42200    107.11585   0.33820026   0.69439486 0.0021632786          0.5    18.514543 0.0025229928    85.664265    11470.746 
   42300    107.36681   0.33948874   0.69510099 0.0021632786          0.5    18.765506 0.0024934678     81.21511    11470.311 
   42400    107.61487   0.33875528   0.69573398 0.0021632786          0.5     19.01356 0.0024649096    84.193284    11468.888 
   42500    107.86011   0.33778669   0.69642508 0.0021632786          0.5    19.258799 0.0024372682    85.014133    11467.209 
   42600    108.10262    0.3390254    0.6970612 0.0021632786          0.5    19.501314 0.0024104972    83.771464    11465.924 
   42700    108.34249   0.33898739   0.69781598 0.0021632786          0.5    19.744271  0.002384418    83.886147    11464.602 
   42800    108.57979   0.33811259   0.69884014 0.0021632786          0.5    19.981454 0.0023592809    83.262345    11463.481 
   42900    108.81462   0.33908815   0.69961333 0.0021632786          0.5    20.216352 0.0023348464    82.829049      11462.5 
   43000    109.04702   0.33939157   0.70043389 0.0021632786          0.5    20.451779  0.002309802    82.753303    11461.542 
   43100    109.27886   0.33993036   0.70134266 0.0021632786          0.5     20.57943 0.0024283291    84.120203    11460.148 
   43200    109.52063   0.33862988   0.70216575 0.0021632786          0.5    19.437533 0.0024786964    84.234711    11458.718 
   43300    109.76722   0.33973373   0.70286779 0.0021632786          0.5    19.681394 0.0024502054    83.620085    11457.482 
   43400    110.01097   0.33969565   0.70392209 0.0021632786          0.5    19.922898 0.0024218809    84.409979        11456 
   43500    110.25188   0.33764512   0.70498175 0.0021632786          0.5    20.153059 0.0023926564    84.596436    11454.462 
   43600    110.50338   0.33917137    0.7053818 0.0021632786          0.5     14.94588 0.0027244734    84.524562    11452.947 
   43700    110.77486   0.33788308   0.70645463 0.0021632786          0.5    14.788961  0.002703075    82.661369    11452.018 
   43800    111.04421     0.337369   0.70753357 0.0021632786          0.5    15.022183 0.0026805107    83.818573    11450.723 
   43900    111.32877    0.3368443   0.70878244 0.0021632786          0.5    15.211299 0.0028769149    83.018487    11449.678 
   44000    111.61646    0.3363398   0.71003699 0.0021632786          0.5    15.498987 0.0028621407    82.865492    11448.681 
   44100    111.90082   0.33773865    0.7111322 0.0021632786          0.5    15.783351 0.0028213168    82.343151    11447.849 
   44200    112.18117   0.33829674   0.71197147 0.0021632786          0.5    16.067007 0.0027815457    83.660031    11446.602 
   44300    112.45763   0.33642388   0.71285425 0.0021632786          0.5    16.398866 0.0027465865    82.835968    11445.612 
   44400    112.73063      0.33704   0.71369574 0.0021632786          0.5    16.671863 0.0027099213    83.395597    11444.446 
   44500    113.00002   0.33780459   0.71456863 0.0021632786          0.5    16.941255 0.0026745836    83.266163    11443.321 
   44600    113.26594   0.33856871   0.71518747 0.0021632786          0.5    17.207872 0.0026400974    82.824584    11442.332 
   44700    113.53193   0.33762559   0.71629346 0.0021632786          0.5    16.556208 0.0026793752    84.566673     11440.81 
   44800    113.80008   0.33783903   0.71726616 0.0021632786          0.5    15.595315 0.0028225298    84.048091    11439.446 
   44900    114.08107   0.33807958   0.71824289 0.0021632786          0.5     15.90916 0.0027872057    81.539868    11438.861 
   45000    114.35831   0.33808249   0.71929015 0.0021632786          0.5    16.135321 0.0027531038    82.893792    11437.848 
   45100    114.63199   0.33807587   0.72022077 0.0021632786          0.5    16.411191 0.0027163647    83.364932     11436.69 
   45200    114.90187   0.33719779   0.72140625 0.0021632786          0.5    16.674973 0.0026740913    83.058551    11435.625 
   45300    115.19301   0.33872485   0.72258053 0.0021632786          0.5    15.288212 0.0030179588    84.999178     11433.98 
   45400    115.49262    0.3382167   0.72366352 0.0021632786          0.5    15.587821 0.0029697508      83.1962    11432.873 
   45500     115.7875   0.33810398   0.72463168 0.0021632786          0.5     15.88723 0.0029236138    82.602438    11431.948 
   45600    116.07786   0.33891006   0.72589783 0.0021632786          0.5    16.177591 0.0028794117    83.384953    11430.783 
   45700    116.36386   0.33845231   0.72719791 0.0021632786          0.5    16.446566 0.0028369154    83.191283    11429.676 
   45800    116.64571   0.33798132   0.72842804 0.0021632786          0.5    16.728414 0.0027962415    83.449273    11428.491 
   45900    116.92356   0.33902769   0.72945167 0.0021632786          0.5    17.005016 0.0027571492    83.814569    11427.198 
   46000    117.19731   0.33866996     0.730895 0.0021632786          0.5    17.278741 0.0027458726    82.836377    11426.198 
   46100    117.47777   0.33869165   0.73232192 0.0021632786          0.5    17.561955 0.0027895113    84.837859    11424.607 
   46200    117.75483   0.33878288   0.73352467 0.0021632786          0.5    17.839017 0.0027478818    83.024074     11423.55 
   46300    118.02781   0.33872496   0.73478766 0.0021632786          0.5    18.112665 0.0027077256    82.949136    11422.514 
   46400    118.29688   0.33941909   0.73571095 0.0021632786          0.5    18.377667 0.0026699516    83.892976    11421.199 
   46500    118.56222   0.33914066   0.73666603 0.0021632786          0.5    18.643002 0.0026333271    84.136909    11419.813 
   46600    118.82396    0.3382927   0.73797967 0.0021632786          0.5     18.90474 0.0025981527    84.705555    11418.266 
   46700    119.08224   0.33911571   0.73903613 0.0021632786          0.5    19.163023 0.0025643358    83.097485    11417.186 
   46800     119.3372   0.34030313   0.74009478 0.0021632786          0.5    19.417982 0.0025317919    84.005014    11415.841 
   46900    119.58896   0.33885887   0.74128025 0.0021632786          0.5    19.669741 0.0025004435    83.334307    11414.691 
   47000    119.83763   0.33933708   0.74265928 0.0021632786          0.5     19.91905 0.0024701523    81.651253    11414.042 
   47100     120.0833   0.33976137   0.74371366 0.0021632786          0.5    20.174714 0.0024390798    81.019215    11413.585 
   47200    120.32597   0.33960496   0.74484284 0.0021632786          0.5     20.38189 0.0024119441    82.917029    11412.553 
   47300    120.56645   0.33971333   0.74609155 0.0021632786          0.5    20.941684 0.0023866492    83.710021    11411.291 
   47400    120.81026   0.33941053   0.74740589 0.0021632786          0.5    19.561939 0.0024197113    85.299267    11409.582 
   47500    121.05136   0.34039614   0.74847273 0.0021632786          0.5    19.803041 0.0023993551    82.902459    11408.555 
   47600    121.29091   0.33972782    0.7496595 0.0021632786          0.5    19.828826 0.0023831213    84.898065     11406.96 
   47700     121.5309   0.33989313   0.75054046 0.0021632786          0.5     20.05082 0.0023964499     83.33285    11405.808 
   47800    121.76966   0.33926395   0.75155124 0.0021632786          0.5    20.289577 0.0023762163    82.225277    11404.978 
   47900    122.00634   0.33996475   0.75267901 0.0021632786          0.5    20.526254 0.0023552636    80.535729    11404.654 
   48000    122.24127   0.33999105   0.75383672 0.0021632786          0.5    20.761185 0.0023718243    82.360985     11403.78 
   48100    122.47728   0.33980643   0.75495896 0.0021632786          0.5    20.997196 0.0023459539    84.350463    11402.337 
   48200    122.71074   0.33871703   0.75624286 0.0021632786          0.5    21.230658 0.0023209041    81.568269    11401.695 
   48300    122.94173   0.33945276   0.75717441 0.0021632786          0.5     21.46165 0.0022966328    83.088843    11400.608 
   48400    123.17033    0.3398997   0.75798172 0.0021632786          0.5    21.690248 0.0022731005    84.225982    11399.201 
   48500    123.39661   0.33900314   0.75902561 0.0021632786          0.5    21.916525 0.0022502709    84.851984    11397.623 
   48600    123.62063   0.34023221   0.75982839 0.0021632786          0.5    22.140478 0.0022281093    83.635258    11396.382 
   48700    123.84243   0.33947227   0.76065946 0.0021632786          0.5    22.373836 0.0022046861     83.95368    11395.053 
   48800    124.06207   0.33845612   0.76156531 0.0021632786          0.5    22.556531  0.002183476    79.960911    11394.883 
   48900    124.27996   0.33976363   0.76242425 0.0021632786          0.5    22.879106  0.002177309    81.824288    11394.156 
   49000    124.50469   0.33923603   0.76341837 0.0021632786          0.5    18.879932  0.002277107    83.780366    11392.872 
   49100    124.73196   0.33921988   0.76446413 0.0021632786          0.5    19.107195 0.0022664298    81.806829    11392.147 
   49200    124.95808   0.33965094   0.76547376 0.0021632786          0.5    19.333322 0.0022549565    84.563518     11390.65 
   49300    125.18304   0.33829303   0.76666894 0.0021632786          0.5    19.558281 0.0022406139    84.016036    11389.302 
   49400    125.42303   0.33942264   0.76726106 0.0021632786          0.5     19.79827 0.0024273988    86.023347    11387.421 
   49500    125.66531   0.33995847   0.76829116 0.0021632786          0.5    20.040546  0.002416359    82.769813    11386.419 
   49600    125.90647   0.33862697   0.76975394 0.0021632786          0.5    20.281705 0.0024035206    83.995072     11385.08 
   49700    126.14749   0.34005237   0.77090063 0.0021632786          0.5    20.522726 0.0023980904    83.091048    11383.988 
   49800    126.38609   0.33935048   0.77197755 0.0021632786          0.5    20.761326 0.0023713742    82.176835    11383.152 
   49900    126.62206   0.33800949   0.77314132 0.0021632786          0.5    20.997293 0.0023455229    83.435678    11381.965 
   50000    126.85548   0.33850181   0.77401082 0.0021632786          0.5    21.230712 0.0023204912    83.334522    11380.805 
   50100    127.08643   0.33944657   0.77512037 0.0021632786          0.5    21.461664 0.0022962368    82.364511    11379.913 
   50200    127.31499   0.33971551   0.77606486 0.0021632786          0.5    21.690223 0.0022727205    83.694336    11378.655 
   50300    127.54123   0.34028434   0.77732623 0.0021632786          0.5    21.916463 0.0022499059    83.328198    11377.496 
   50400    127.76521   0.33856842   0.77886915 0.0021632786          0.5    22.141685 0.0022273496    84.433785     11376.04 
   50500    127.98698   0.33939221   0.78013959 0.0021632786          0.5    22.357259 0.0022057209    83.055179    11374.956 
   50600    128.21006   0.34034149   0.78123681 0.0021632786          0.5    21.387859 0.0022252348    84.206131    11373.562 
   50700    128.43193   0.34003882   0.78212239 0.0021632786          0.5    21.457619  0.002207801    83.202901    11372.437 
   50800    128.65191   0.34093993   0.78286823 0.0021632786          0.5    21.666005 0.0021889126     83.99487      11371.1 
   50900    128.86991   0.34122518   0.78378266 0.0021632786          0.5    21.884008 0.0021692658    82.897363    11370.058 
   51000    129.08597    0.3400993   0.78488903 0.0021632786          0.5    22.100069 0.0021501205    83.599518    11368.827 
   51100    129.30014   0.33903486   0.78590468 0.0021632786          0.5    22.314237 0.0021314561    83.112815    11367.725 
   51200    129.51246   0.33929901   0.78672325 0.0021632786          0.5     22.52656 0.0021132532    83.318481    11366.568 
   51300    129.72298   0.34063676   0.78735044 0.0021632786          0.5    22.737083 0.0020954936     83.18602    11365.447 
   51400    129.93175   0.33903946   0.78833186 0.0021632786          0.5    22.945144 0.0020780804    84.581612    11363.959 
   51500     130.1388     0.340565    0.7889528 0.0021632786          0.5    23.150535  0.002061244    82.636224    11362.985 
   51600    130.34417   0.34023418   0.78982196 0.0021632786          0.5    23.355707 0.0020447017    83.984846    11361.652 
   51700    130.54787   0.33981778   0.79084899 0.0021632786          0.5    23.571605 0.0020282108     83.59247    11360.423 
   51800    130.75703   0.34032796   0.79144583 0.0021632786          0.5    22.500343 0.0021671873    85.221778    11358.776 
   51900    130.97317   0.34001592   0.79218199 0.0021632786          0.5    22.716491 0.0021542909    83.945513    11357.456 
   52000    131.18802   0.34016314   0.79299485 0.0021632786          0.5    22.931333 0.0021412689    83.836918    11356.164 
   52100    131.40156   0.34057448   0.79404054 0.0021632786          0.5    23.144926 0.0021283802    83.530042    11354.953 
   52200    131.61383   0.34001299   0.79500744 0.0021632786          0.5    23.357106 0.0021150997    84.935578    11353.382 
   52300     131.8262   0.33994573   0.79601336 0.0021632786          0.5    23.569476 0.0021207412    84.274315     11351.98 
   52400    132.03742   0.33988888   0.79669913 0.0021632786          0.5    23.780699 0.0021019159    84.074103     11350.63 
   52500    132.24679   0.33997983   0.79749773 0.0021632786          0.5    23.990061 0.0020835832    83.491266     11349.43 
   52600    132.45434   0.33979286   0.79840234 0.0021632786          0.5    24.197612  0.002065722    83.443413    11348.243 
   52700    132.66012   0.33985087    0.7994512 0.0021632786          0.5    24.403774 0.0020482785    84.406072     11346.81 
   52800    132.86418    0.3405358   0.80034717 0.0021632786          0.5     24.60786 0.0020312982    83.826362    11345.525 
[...]
  985300    2201.8677   0.33865579    8.0551126 0.0021632786          0.5    21.808841  0.002229375    88.760524    173.21591 
  985400    2202.0896   0.33866445    8.0558028 0.0021632786          0.5    22.030817 0.0022081177    88.726895    172.03681 
  985500    2202.3095   0.33835169    8.0561798 0.0021632786          0.5    22.250694 0.0021874464    88.764769    170.85772 
  985600    2202.5274   0.33888451    8.0567074 0.0021632786          0.5    22.468529  0.002167335    88.619102    169.67866 
  985700    2202.7431    0.3390982    8.0574658 0.0021632786          0.5    22.713137 0.0021461308    89.329821    168.49948 
  985800    2202.9569   0.33914317    8.0582809 0.0021632786          0.5    22.924026 0.0021275754     88.86644     167.3204 
  985900    2203.1688   0.33900441    8.0590335 0.0021632786          0.5    23.135944 0.0021090201    88.902172    166.14132 
  986000    2203.3789    0.3384089    8.0599353 0.0021632786          0.5    23.346732 0.0020908534    87.979853    164.96242 
  986100    2203.5872   0.33943147    8.0605214 0.0021632786          0.5    23.546192 0.0020735024    87.697208    163.78358 
  986200    2203.7938   0.33837501    8.0611568 0.0021632786          0.5    23.752765 0.0020562981    88.369823    162.60463 
  986300    2203.9986   0.33762727    8.0617933 0.0021632786          0.5    23.960172 0.0020392752    88.983972    161.42558 
  986400    2204.2018   0.33809906    8.0623393 0.0021632786          0.5    24.169523 0.0020209752    88.643206     160.2466 
  986500    2204.4092   0.33785658    8.0628602 0.0021632786          0.5    21.003673 0.0023042063    89.584707    159.06746 
  986600    2204.6384   0.33817464    8.0633414 0.0021632786          0.5    20.660687 0.0023538853    89.810867    157.88831 
  986700    2204.8817   0.33837709    8.0638646 0.0021632786          0.5    19.360522 0.0024496718    92.295024    156.70876 
  986800    2205.1277   0.33862055    8.0644528 0.0021632786          0.5    19.606439 0.0024675244    90.931153    155.52945 
  986900     2205.373   0.33768401    8.0655679 0.0021632786          0.5    19.873292 0.0024385044    89.154695    154.35044 
  987000    2205.6157   0.33744902    8.0664272 0.0021632786          0.5    20.106609 0.0024114507      87.1978    153.17178 
  987100    2205.8556   0.33817357     8.067198 0.0021632786          0.5    20.346543 0.0023846818    88.658852    151.99288 
  987200    2206.0929   0.33806664    8.0680941 0.0021632786          0.5    20.583838 0.0023587679    88.244586    150.81405 
  987300    2206.3276   0.33935516    8.0689715 0.0021632786          0.5    20.818578  0.002333665    89.189995    149.63509 
  987400    2206.5599   0.33740293    8.0702165 0.0021632786          0.5    21.051002 0.0023092512    89.533686    148.45607 
  987500    2206.7897    0.3395085    8.0709899 0.0021632786          0.5    21.301333 0.0022805238    88.754927     147.2772 
  987600    2207.0572     0.339124    8.0719678 0.0021632786          0.5    15.098192 0.0027725589    91.864312    146.09786 
  987700    2207.3352   0.33943333    8.0727501 0.0021632786          0.5    15.376109 0.0027871962     90.78924    144.91869 
  987800    2207.6144   0.33782891    8.0736185 0.0021632786          0.5    15.655365 0.0028005079    91.825255    143.73939 
  987900    2207.8977   0.33764823    8.0744516 0.0021632786          0.5     15.93869 0.0030364291    91.915325    142.56009 
  988000     2208.199   0.33728616    8.0753149 0.0021632786          0.5    16.242726 0.0029809054    87.532564    141.38148 
  988100      2208.51   0.33813593     8.076195 0.0021632786          0.5    14.963832 0.0032513463    90.353824    140.20244 
  988200    2208.8339   0.33790844    8.0775779 0.0021632786          0.5    15.287693 0.0032230477    88.835271    139.02364 
  988300    2209.1549    0.3374921    8.0787275 0.0021632786          0.5      15.6087 0.0031929719    88.983972    137.84483 
  988400    2209.4714   0.33792335    8.0800454 0.0021632786          0.5    15.925232 0.0031310289    89.079788    136.66602 
  988500    2209.7818   0.33710184    8.0813575 0.0021632786          0.5    16.235628 0.0030714891    88.330016    135.48732 
  988600    2210.0864    0.3371142     8.082294 0.0021632786          0.5    16.540219 0.0030152182    88.431718    134.30863 
  988700    2210.3855   0.33803354    8.0834568 0.0021632786          0.5    16.839319 0.0029619277     89.16129    133.12984 
  988800    2210.6794   0.33748382    8.0845507 0.0021632786          0.5    17.133215 0.0029113636    88.795513    131.95111 
  988900    2210.9684   0.33796819    8.0858127 0.0021632786          0.5    17.422169 0.0028633013     89.36686    130.77231 
  989000    2211.2526   0.33806835    8.0868059 0.0021632786          0.5    17.706462 0.0028174448    89.115521    129.59356 
  989100    2211.5324   0.33755217     8.088055 0.0021632786          0.5    17.985889 0.0027738602    88.664418    128.41488 
  989200    2211.8079   0.33834795    8.0894309 0.0021632786          0.5    18.261384 0.0027321923    89.267557    127.23613 
  989300    2212.0793   0.33880146    8.0904586 0.0021632786          0.5    18.532796 0.0026923459     89.41792    126.05737 
  989400    2212.3468   0.33877459    8.0912543 0.0021632786          0.5      18.8003 0.0026541921    88.841819     124.8787 
  989500    2212.6106    0.3380613    8.0922098 0.0021632786          0.5    19.064061 0.0026176143    88.868436    123.70004 
  989600    2212.8707   0.33968716     8.092737 0.0021632786          0.5     19.32423  0.002582507     89.14109    122.52135 
  989700    2213.1274   0.34004843    8.0932521 0.0021632786          0.5    19.580952 0.0025487744    89.289392    121.34266 
  989800    2213.3809   0.33919577    8.0941937 0.0021632786          0.5    19.834359  0.002516329     89.72303    120.16392 
  989900    2213.6311   0.34021039    8.0952292 0.0021632786          0.5    20.084577  0.002485091    89.745991    118.98519 
  990000    2213.8782   0.33949475    8.0965415 0.0021632786          0.5     20.33165  0.002454996    87.837024    117.80672 
  990100    2214.1224   0.33837415     8.097761 0.0021632786          0.5    20.582659 0.0024251096    89.386667    116.62806 
  990200    2214.3635   0.33738026    8.0987389 0.0021632786          0.5    20.820224 0.0023979123    89.079088    115.44945 
  990300    2214.6021   0.33959925    8.0993493 0.0021632786          0.5    21.057283 0.0023709874    89.406083    114.27081 
  990400     2214.838   0.33890496    8.0998522 0.0021632786          0.5    21.293196 0.0023447944    89.074964    113.09222 
  990500    2215.0714    0.3396015    8.1001559 0.0021632786          0.5    21.526528 0.0023194503    89.884331    111.91355 
  990600    2215.3022   0.33913314    8.1009695 0.0021632786          0.5    21.757363 0.0022949102    89.409285    110.73495 
  990700    2215.5306   0.33872155    8.1017442 0.0021632786          0.5    21.985777 0.0022711325    89.791929    109.55631 
  990800    2215.7567   0.33899441    8.1020415 0.0021632786          0.5    22.211847 0.0022480784    89.213614    108.37776 
  990900    2215.9805   0.33926772    8.1026715 0.0021632786          0.5    22.435643 0.0022257121    89.092655    107.19923 
  991000    2216.2021   0.33856558    8.1032548 0.0021632786          0.5    22.657232     0.002204    89.008445    106.02072 
  991100    2216.4215   0.33812631    8.1038853 0.0021632786          0.5    22.876678 0.0021829109    89.162162     104.8422 
  991200    2216.6389   0.33910523    8.1046268 0.0021632786          0.5    23.094042 0.0021624155    89.409685    103.66367 
  991300    2216.8542   0.33803594      8.10545 0.0021632786          0.5    23.310372 0.0021423483    90.032007    102.48509 
  991400    2217.0676   0.33844274    8.1059378 0.0021632786          0.5    23.522039  0.002123005    89.805079    101.30654 
  991500     2217.279   0.33832927    8.1065865 0.0021632786          0.5    23.732484 0.0021040834    88.668748    100.12812 
  991600    2217.4885   0.33841282    8.1073445 0.0021632786          0.5    23.953511 0.0020839393    89.722876    98.949608 
  991700    2217.6963   0.33784334    8.1082776 0.0021632786          0.5    24.134426 0.0020682884    89.721091    97.771106 
  991800    2217.9023   0.33967014    8.1090435 0.0021632786          0.5     24.34676 0.0020499651     89.17418    96.592673 
  991900    2218.1066     0.336427     8.109868 0.0021632786          0.5    24.539746 0.0020335989    88.996471     95.41427 
  992000    2218.3092   0.33881458    8.1102644 0.0021632786          0.5    24.747159 0.0020162869    87.753555    94.236007 
  992100      2218.51   0.33798615    8.1110832 0.0021632786          0.5    24.962944 0.0019979442    89.441983     93.05758 
  992200    2218.7091   0.33814178    8.1117869 0.0021632786          0.5    25.165655 0.0019822556    89.960347    91.879114 
  992300    2218.9088    0.3382443    8.1124833 0.0021632786          0.5     24.13284 0.0019899559    90.181972    90.700641 
  992400    2219.1072   0.33965622    8.1130376 0.0021632786          0.5    24.334619 0.0019751057    89.741152    89.522223 
  992500     2219.304    0.3389607    8.1138562 0.0021632786          0.5    24.531966 0.0019604468    88.982707     88.34389 
  992600    2219.4994   0.33857559    8.1145724 0.0021632786          0.5    24.727698 0.0019460897    89.305076    87.165538 
  992700    2219.6934    0.3384611    8.1151869 0.0021632786          0.5    24.919747 0.0019323006    89.342684    85.987194 
  992800     2219.886   0.33876536    8.1158951 0.0021632786          0.5    25.117029 0.0019184336    89.364613     84.80886 
  992900    2220.0772   0.33958108    8.1164295 0.0021632786          0.5    25.308263 0.0019049598    89.529768    83.630524 
  993000    2220.2671   0.33963642    8.1169417 0.0021632786          0.5    25.498163  0.001891759    89.168758    82.452231 
  993100    2220.4557    0.3384032    8.1176957 0.0021632786          0.5    25.686755 0.0018788224     87.90792    81.274062 
  993200     2220.643   0.33976877    8.1184807 0.0021632786          0.5    25.874064 0.0018661414    89.017304    80.095804 
  993300    2220.8291   0.33916995    8.1194087 0.0021632786          0.5    26.060351 0.0018536105    87.230352    78.917712 
  993400    2221.0139   0.34092506    8.1199905 0.0021632786          0.5    26.258875 0.0018388672    86.118177    77.739725 
  993500    2221.2157   0.33961844    8.1208589 0.0021632786          0.5    24.415666 0.0020313703    86.695768    76.561691 
  993600    2221.4182   0.33995604    8.1216178 0.0021632786          0.5    24.614252 0.0020170389     86.33259    75.383692 
  993700    2221.6192   0.34014496    8.1223212 0.0021632786          0.5     24.81512 0.0020029462    86.410938    74.205691 
  993800     2221.819   0.33904887    8.1230008 0.0021632786          0.5    25.014833 0.0019984799    87.148085    73.027634 
  993900    2222.0181    0.3395523    8.1235121 0.0021632786          0.5    25.213968 0.0019827016    86.258286    71.849655 
  994000    2222.2157   0.33878159    8.1241435 0.0021632786          0.5    25.412246 0.0019672398     86.11335    70.671691 
  994100    2222.4117   0.33927451    8.1249719 0.0021632786          0.5     25.60773 0.0019522302    85.861531    69.493752 
  994200    2222.6063   0.33861194    8.1255054 0.0021632786          0.5    25.802342 0.0019375079    86.940274     68.31573 
  994300    2222.7994   0.33996522    8.1259152 0.0021632786          0.5    25.995358 0.0019231265    88.180469    67.137621 
  994400     2222.991   0.33848192    8.1268191 0.0021632786          0.5    26.187034 0.0019090517    88.984897    65.959464 
  994500    2223.1813   0.33805986    8.1274612 0.0021632786          0.5    26.371039 0.0018956579    88.634964    64.781342 
  994600    2223.3703   0.33939647    8.1277263 0.0021632786          0.5    26.559643 0.0018821988    89.039906    63.603202 
  994700    2223.5579   0.33755149    8.1282649 0.0021632786          0.5    26.747098 0.0018690096    89.294486    62.425056 
  994800    2223.7442   0.33867353    8.1287366 0.0021632786          0.5    26.934051 0.0018560374    88.270605     61.24699 
  994900    2223.9293    0.3381096    8.1297516 0.0021632786          0.5    27.120275  0.001843284    88.970268    60.068887 
  995000     2224.113   0.33723023    8.1303629 0.0021632786          0.5    27.300573 0.0018310355    88.714678    58.890812 
  995100    2224.2956   0.33730448    8.1308818 0.0021632786          0.5    27.483347  0.001818848    88.449956    57.712763 
  995200    2224.4769    0.3377437    8.1313177 0.0021632786          0.5    27.679313 0.0018058881    88.468631    56.534722 
  995300     2224.657   0.33824302    8.1316069 0.0021632786          0.5    27.840468 0.0017953155    89.014943    55.356659 
  995400     2224.836   0.33909636    8.1319587 0.0021632786          0.5    28.019383 0.0017838407    88.771871     54.17862 
  995500    2225.0139   0.33844993    8.1326194 0.0021632786          0.5    28.197415 0.0017725736    89.068835    53.000575 
  995600    2225.1907   0.33810937    8.1332711 0.0021632786          0.5    28.365919 0.0017618323    89.779436    51.822502 
  995700    2225.3663   0.33873347    8.1336856 0.0021632786          0.5    28.541217 0.0017508247    88.619795    50.644505 
  995800    2225.5409   0.33939288    8.1341792 0.0021632786          0.5    28.714144 0.0017401474    88.488528    49.466524 
  995900    2225.7144    0.3389585    8.1347946 0.0021632786          0.5    28.885612 0.0017296952    88.103858    48.288574 
  996000    2225.8869   0.33892325    8.1354321 0.0021632786          0.5    29.059822 0.0017189622    88.102544    47.110632 
  996100    2226.0892   0.33750357    8.1362342 0.0021632786          0.5    15.399212  0.002152137    90.378335    45.932587 
  996200    2226.3049   0.33761197    8.1369163 0.0021632786          0.5     14.74748 0.0021625415    91.775105    44.754493 
  996300    2226.5216   0.33774954    8.1371663 0.0021632786          0.5     14.96225 0.0021729573    91.683566    43.576419 
  996400    2226.7394   0.33853185    8.1374737 0.0021632786          0.5    15.180015 0.0021833794    91.594809    42.398368 
  996500    2226.9582   0.33835137    8.1380436 0.0021632786          0.5    15.398826 0.0021939056    91.388211    41.220342 
  996600    2227.2121   0.33789009    8.1387133 0.0021632786          0.5    14.312111 0.0029953792     89.49395    40.042412 
  996700    2227.5108   0.33787147    8.1394214 0.0021632786          0.5    13.961053 0.0029776937    88.543205    38.864534 
  996800    2227.8077   0.33851202    8.1403292 0.0021632786          0.5    14.251278 0.0029595681    88.888889    37.686652 
  996900    2228.1034   0.33640111    8.1412191 0.0021632786          0.5    12.797112 0.0029469695    89.297129    36.508764 
  997000    2228.3972   0.33665101    8.1415503 0.0021632786          0.5    13.090922 0.0029271904    88.019401    35.330937 
  997100     2228.723    0.3356432    8.1422267 0.0021632786          0.5    13.416689  0.003651324    88.727533    34.153092 
  997200    2229.0839   0.33834008    8.1428269 0.0021632786          0.5    13.777626 0.0035593556    88.699894    32.975258 
  997300    2229.4359   0.33722333    8.1440249 0.0021632786          0.5    14.129666 0.0034739279    88.961097    31.797425 
  997400    2229.7797   0.33780553    8.1451059 0.0021632786          0.5     14.47235 0.0033940544    87.752306    30.619643 
  997500    2230.1157   0.33679919    8.1464971 0.0021632786          0.5    14.795454 0.0033209586    87.933501    29.441863 
  997600    2230.4455   0.33849672    8.1472046 0.0021632786          0.5    15.064195 0.0032618999    88.044288    28.264088 
  997700    2230.7687   0.33683358    8.1486698 0.0021632786          0.5    15.387371 0.0031956623    88.371778    27.086311 
  997800    2231.0854   0.33643441    8.1497517 0.0021632786          0.5    15.704099 0.0031332637    88.358747    25.908544 
  997900    2231.4029   0.33770518    8.1507061 0.0021632786          0.5    14.987097 0.0032423496     89.77321    24.730749 
  998000    2231.7241   0.33929881    8.1514305 0.0021632786          0.5    15.404278 0.0031706042    88.296713    23.553004 
  998100    2232.0412   0.33723998    8.1522753 0.0021632786          0.5     15.70373 0.0031662317    87.785292     22.37528 
  998200     2232.355   0.33764803    8.1529269 0.0021632786          0.5    16.018681  0.003104769    88.076773    21.197558 
  998300    2232.6628   0.33793326    8.1538687 0.0021632786          0.5    16.326954 0.0030468334    87.444476    20.019858 
  998400     2232.965   0.33688502    8.1552298 0.0021632786          0.5    16.629248 0.0029920075    88.368334    18.842145 
  998500    2233.2619   0.33834146    8.1560428 0.0021632786          0.5    16.926088 0.0029400355    88.430543    17.664441 
  998600    2233.5536   0.33784386    8.1570354 0.0021632786          0.5    17.217849 0.0028906745    88.147204    16.486751 
  998700    2233.8406   0.33770561    8.1585229 0.0021632786          0.5    17.504785 0.0028437132    89.246112    15.309052 
  998800    2234.1229   0.33773127     8.159519 0.0021632786          0.5    17.787125 0.0027989636    88.165992     14.13138 
  998900    2234.4009   0.33711612    8.1603729 0.0021632786          0.5    18.065083 0.0027562576     88.25153    12.953716 
  999000    2234.6746   0.33819389    8.1612862 0.0021632786          0.5    18.338857 0.0027154445    87.454467    11.776071 
  999100    2234.9444   0.33721794    8.1621474 0.0021632786          0.5     18.60863 0.0026763885    88.317927    10.598423 
  999200    2235.2104    0.3366836    8.1627788 0.0021632786          0.5    18.874572 0.0026389673    88.618934    9.4207814 
  999300    2235.4726    0.3372622    8.1636936 0.0021632786          0.5    19.136841 0.0026030701    88.387086    8.2431513 
  999400    2235.7314   0.33727256    8.1644093 0.0021632786          0.5    19.395586 0.0025685962    89.020252    7.0655257 
  999500    2235.9867   0.33794265    8.1651772 0.0021632786          0.5    19.650943 0.0025354541    88.523695    5.8879141 
  999600    2236.2388   0.33726076    8.1660261 0.0021632786          0.5    19.903043 0.0025035604    88.683784    4.7103113 
  999700    2236.4878   0.33782613    8.1665391 0.0021632786          0.5    20.152008 0.0024728386    88.891639    3.5327177 
  999800    2236.7337   0.33702769    8.1676349 0.0021632786          0.5     20.39795 0.0024432187    89.093923    2.3551341 
  999900    2236.9768   0.33723127    8.1681618 0.0021632786          0.5    20.640241 0.0024147014    88.782036    1.1775619 
 1000000     2237.217   0.33916411     8.168684 0.0021632786          0.5    20.880461 0.0023870958    87.960185            0 
Loop time of 11775.6 on 4 procs for 1000000 steps with 174274 atoms

Performance: 17514.645 tau/day, 84.922 timesteps/s
223.1% CPU use with 1 MPI tasks x 4 OpenMP threads

MPI task timing breakdown:
Section |  min time  |  avg time  |  max time  |%varavg| %total
---------------------------------------------------------------
Pair    | 3696.9     | 3696.9     | 3696.9     |   0.0 | 31.39
Neigh   | 187.21     | 187.21     | 187.21     |   0.0 |  1.59
Comm    | 1348.7     | 1348.7     | 1348.7     |   0.0 | 11.45
Output  | 31.968     | 31.968     | 31.968     |   0.0 |  0.27
Modify  | 5822.2     | 5822.2     | 5822.2     |   0.0 | 49.44
Other   |            | 688.6      |            |       |  5.85

Nlocal:    174274 ave 174274 max 174274 min
Histogram: 1 0 0 0 0 0 0 0 0 0
Nghost:    66630 ave 66630 max 66630 min
Histogram: 1 0 0 0 0 0 0 0 0 0
Neighs:    0 ave 0 max 0 min
Histogram: 1 0 0 0 0 0 0 0 0 0

Total # of neighbors = 0
Ave neighs/atom = 0
Neighbor list builds = 328671
Dangerous builds = 0

Please see the log.cite file for references relevant to this simulation

Total wall time: 3:17:13
