#package gpu 1
#suffix gpu
#variable rho equal 0.05

units lj
atom_style atomic

lattice fcc 0.975
Lattice spacing in x,y,z = 1.60085 1.60085 1.60085
region box block 0 60 0 30 0 30
create_box 2 box
Created orthogonal box = (0 0 0) to (96.0513 48.0256 48.0256)
  1 by 1 by 1 MPI processor grid
create_atoms 1 box
Created 216000 atoms
  Time spent = 0.0405109 secs
mass 1 4.0
mass 2 0.5


pair_style lj/cut 2.5
pair_coeff 1 1 1.0 1.0 2.5
pair_coeff 2 2 0.5 0.88 2.5
pair_coeff 1 2 0.2 1.0 2.5
#pair_coeff 1 2 1.5 0.8 2.5
pair_modify mix geometric
neigh_modify every 1 delay 0 check yes

variable R equal 12
region cylinder1 cylinder x $(0.5*ly) $(0.5*lz) $R EDGE EDGE units box
region cylinder1 cylinder x 24.012813670346833561 $(0.5*lz) $R EDGE EDGE units box
region cylinder1 cylinder x 24.012813670346833561 24.012813670346833561 $R EDGE EDGE units box
region cylinder1 cylinder x 24.012813670346833561 24.012813670346833561 12 EDGE EDGE units box

group cylinder1 region cylinder1
41820 atoms in group cylinder1
variable V equal PI*v_R*v_R*lx
# variable rho equal 0.1
variable natoms equal $V*${rho}
variable natoms equal 43452.5639148185*${rho}
variable natoms equal 43452.5639148185*0.50
variable natoms_in_cylinder equal count(cylinder1)
variable delete_fraction equal (${natoms_in_cylinder}-${natoms})/${natoms_in_cylinder}
variable delete_fraction equal (41820-${natoms})/${natoms_in_cylinder}
variable delete_fraction equal (41820-21726.2819574093)/${natoms_in_cylinder}
variable delete_fraction equal (41820-21726.2819574093)/41820
set group cylinder1 type 2
  41820 settings made for type
delete_atoms porosity cylinder1 ${delete_fraction} 12345
delete_atoms porosity cylinder1 0.480481062711399 12345
Deleted 20189 atoms, new total = 195811
#delete_atoms region cylinder1

region cylinder2 cylinder x $(0.5*ly) $(0.5*lz) $(v_R+6) EDGE EDGE units box
region cylinder2 cylinder x 24.012813670346833561 $(0.5*lz) $(v_R+6) EDGE EDGE units box
region cylinder2 cylinder x 24.012813670346833561 24.012813670346833561 $(v_R+6) EDGE EDGE units box
region cylinder2 cylinder x 24.012813670346833561 24.012813670346833561 18 EDGE EDGE units box
region cylinder3 cylinder x $(0.5*ly) $(0.5*lz) $(v_R+9) EDGE EDGE units box
region cylinder3 cylinder x 24.012813670346833561 $(0.5*lz) $(v_R+9) EDGE EDGE units box
region cylinder3 cylinder x 24.012813670346833561 24.012813670346833561 $(v_R+9) EDGE EDGE units box
region cylinder3 cylinder x 24.012813670346833561 24.012813670346833561 21 EDGE EDGE units box
group cylinder2 region cylinder2
75631 atoms in group cylinder2
group cylinder3 region cylinder3
109471 atoms in group cylinder3

group nve region cylinder3
109471 atoms in group nve
group langevin subtract cylinder3 cylinder2
33840 atoms in group langevin
group frozen subtract all cylinder3
86340 atoms in group frozen

region force cylinder x $(0.5*ly) $(0.5*lz) $(v_R-1) EDGE EDGE units box
region force cylinder x 24.012813670346833561 $(0.5*lz) $(v_R-1) EDGE EDGE units box
region force cylinder x 24.012813670346833561 24.012813670346833561 $(v_R-1) EDGE EDGE units box
region force cylinder x 24.012813670346833561 24.012813670346833561 11 EDGE EDGE units box
group gas type 2
21631 atoms in group gas

fix nve nve nve
fix langevin langevin langevin 0.50 0.50 1.0 12345 zero yes

variable gascount equal count(gas)

variable dP equal 0.001
variable force equal v_dP/v_rho

velocity all create 0.1 87287
velocity frozen set 0 0 0

compute chunk all chunk/atom bin/cylinder x lower $(lx) $(0.5*ly) $(0.5*lz) 0 $(v_R+3) 80 units box
compute chunk all chunk/atom bin/cylinder x lower 96.051254681387334244 $(0.5*ly) $(0.5*lz) 0 $(v_R+3) 80 units box
compute chunk all chunk/atom bin/cylinder x lower 96.051254681387334244 24.012813670346833561 $(0.5*lz) 0 $(v_R+3) 80 units box
compute chunk all chunk/atom bin/cylinder x lower 96.051254681387334244 24.012813670346833561 24.012813670346833561 0 $(v_R+3) 80 units box
compute chunk all chunk/atom bin/cylinder x lower 96.051254681387334244 24.012813670346833561 24.012813670346833561 0 15 80 units box

compute displacement all displace/atom
compute mean_displacement nve reduce ave c_displacement[4]

compute vmax all reduce max vx
variable volume equal count(gas)/v_V

thermo_style custom step time temp c_mean_displacement v_volume v_force c_vmax dt spcpu cpuremain
thermo 100

compute keAtom all ke/atom
dump dump all custom 1000 trajectory.bin id type x y z c_keAtom

fix flow gas addforce v_force 0.0 0.0
run 5000
No /omp style for force computation currently active
Per MPI rank memory allocation (min/avg/max) = 96.31 | 96.31 | 96.31 Mbytes
Step Time Temp c_mean_displacement v_volume v_force c_vmax Dt S/CPU CPULeft 
       0            0  0.055864773            0   0.49780722        0.002   0.77501128        0.005            0            0 
     100          0.5  0.077455132   0.10017742   0.49780722        0.002    2.4464494        0.005    130.16241    37.645324 
     200            1    0.1098732   0.17316279   0.49780722        0.002    3.0766071        0.005    129.23823    37.008888 
     300          1.5   0.12671791   0.24441396   0.49780722        0.002     3.080321        0.005    127.69238    36.427645 
     400            2   0.14082471   0.30704024   0.49780722        0.002    2.9854347        0.005      127.925    35.729084 
     500          2.5   0.14995418   0.36300446   0.49780722        0.002    3.2263079        0.005    125.60463    35.127233 
     600            3   0.15607401    0.4079417   0.49780722        0.002     3.360503        0.005    128.44687    34.331418 
     700          3.5   0.16230573   0.43925642   0.49780722        0.002    3.3088616        0.005    126.50333    33.614027 
     800            4   0.16998036   0.45889926   0.49780722        0.002    3.2133905        0.005    126.59398    32.875384 
     900          4.5   0.17681908   0.46950044   0.49780722        0.002    3.3962774        0.005    126.92032    32.116092 
    1000            5   0.18184822   0.47501172   0.49780722        0.002    3.1444264        0.005    124.17207    31.420832 
    1100          5.5   0.18641563   0.47999786   0.49780722        0.002    3.9136118        0.005     126.2698    30.658123 
    1200            6   0.18934504   0.48960095   0.49780722        0.002     3.557819        0.005    125.41905    29.907552 
    1300          6.5   0.19220814   0.50484298   0.49780722        0.002      3.44505        0.005    126.50078    29.130379 
    1400            7   0.19549064   0.52377118   0.49780722        0.002    3.2836845        0.005    125.74931    28.363454 
    1500          7.5   0.19817043   0.54327821   0.49780722        0.002    3.6967821        0.005    125.33967    27.598814 
    1600            8   0.20209448   0.56271877   0.49780722        0.002    3.3580759        0.005    127.96134    26.795294 
    1700          8.5   0.20557497   0.58284667   0.49780722        0.002    3.5900016        0.005    125.34222    26.026063 
    1800            9    0.2096403   0.60228041   0.49780722        0.002    3.4462272        0.005    124.46944    25.263602 
    1900          9.5   0.21397734   0.62245407   0.49780722        0.002    3.3756651        0.005    126.94413    24.471276 
    2000           10   0.21704899   0.64413094   0.49780722        0.002    3.3121989        0.005    124.77945    23.699906 
    2100         10.5   0.22045116   0.66688366   0.49780722        0.002    3.0904403        0.005    125.09776    22.922861 
    2200           11   0.22237587   0.68858473   0.49780722        0.002    3.3949572        0.005    126.15651    22.135246 
    2300         11.5   0.22445321   0.70916977   0.49780722        0.002    3.4546093        0.005    125.66209    21.350853 
    2400           12   0.22632608   0.72701037   0.49780722        0.002    3.6706802        0.005    124.84177    20.571176 
    2500         12.5   0.22864234   0.74190711   0.49780722        0.002    3.5459462        0.005    126.23951    19.780923 
    2600           13   0.23034801   0.75329595   0.49780722        0.002     3.513268        0.005    123.46974    19.006927 
    2700         13.5   0.23223805   0.76267816   0.49780722        0.002    4.3553179        0.005    124.13664    18.226565 
    2800           14   0.23345433   0.77125348   0.49780722        0.002    3.6367041        0.005    125.64677    17.436794 
    2900         14.5   0.23434647   0.77912089   0.49780722        0.002    3.8151246        0.005    124.07165     16.65392 
    3000           15    0.2344468   0.78842696   0.49780722        0.002    3.6363803        0.005    122.41865    15.876759 
    3100         15.5   0.23616245   0.79882356   0.49780722        0.002    3.6518193        0.005    123.94215    15.090883 
    3200           16   0.23819816   0.80971818   0.49780722        0.002    4.1374259        0.005    126.05668    14.296084 
    3300         16.5   0.23928146   0.82186766   0.49780722        0.002    3.6691248        0.005    124.61988    13.506088 
    3400           17   0.24042201   0.83449245   0.49780722        0.002    3.8927779        0.005    126.76232    12.708978 
    3500         17.5   0.24182593   0.84716115   0.49780722        0.002    4.0212861        0.005    125.75896    11.915036 
    3600           18   0.24309656   0.86004292   0.49780722        0.002    3.5871686        0.005    128.19067     11.11516 
    3700         18.5   0.24586185   0.87333119   0.49780722        0.002    3.6563144        0.005    127.59104    10.317641 
    3800           19   0.24659634   0.88627526   0.49780722        0.002    3.7340849        0.005    128.24955    9.5195757 
    3900         19.5   0.24729782   0.89897735   0.49780722        0.002    3.9805909        0.005    127.30597    8.7240808 
    4000           20   0.24863085   0.91245293   0.49780722        0.002    3.3653427        0.005    122.68405    7.9364835 
    4100         20.5   0.24985562   0.92532141   0.49780722        0.002    3.3496796        0.005    123.75177    7.1460007 
    4200           21   0.25039159   0.93853905   0.49780722        0.002     4.341848        0.005    126.20514    6.3516884 
    4300         21.5    0.2511672   0.95025379   0.49780722        0.002    3.5565895        0.005    125.50154      5.55819 
    4400           22   0.25249879   0.96200624   0.49780722        0.002    3.9462931        0.005    125.40191    4.7646275 
    4500         22.5   0.25234097   0.97301887   0.49780722        0.002    3.3413916        0.005    124.72746    3.9713723 
    4600           23   0.25323923    0.9829269   0.49780722        0.002    3.4989121        0.005    124.92517    3.1776374 
    4700         23.5   0.25485013   0.99169509   0.49780722        0.002    4.1051686        0.005    124.39653    2.3838326 
    4800           24   0.25410937    1.0011327   0.49780722        0.002    3.8006972        0.005    124.49612    1.5895812 
    4900         24.5   0.25551743     1.011099   0.49780722        0.002    3.7914218        0.005    125.74995   0.79479955 
    5000           25   0.25609312    1.0210608   0.49780722        0.002    3.9242158        0.005    123.36341            0 
Loop time of 39.7558 on 4 procs for 5000 steps with 195811 atoms

Performance: 54331.688 tau/day, 125.768 timesteps/s
235.4% CPU use with 1 MPI tasks x 4 OpenMP threads

MPI task timing breakdown:
Section |  min time  |  avg time  |  max time  |%varavg| %total
---------------------------------------------------------------
Pair    | 17.21      | 17.21      | 17.21      |   0.0 | 43.29
Neigh   | 0.32034    | 0.32034    | 0.32034    |   0.0 |  0.81
Comm    | 4.3057     | 4.3057     | 4.3057     |   0.0 | 10.83
Output  | 0.16906    | 0.16906    | 0.16906    |   0.0 |  0.43
Modify  | 14.24      | 14.24      | 14.24      |   0.0 | 35.82
Other   |            | 3.511      |            |       |  8.83

Nlocal:    195811 ave 195811 max 195811 min
Histogram: 1 0 0 0 0 0 0 0 0 0
Nghost:    68279 ave 68279 max 68279 min
Histogram: 1 0 0 0 0 0 0 0 0 0
Neighs:    0 ave 0 max 0 min
Histogram: 1 0 0 0 0 0 0 0 0 0

Total # of neighbors = 0
Ave neighs/atom = 0
Neighbor list builds = 656
Dangerous builds = 0

reset_timestep 0
fix vx all ave/chunk 10 10000 100000 chunk vx ave running file velocity.txt

fix dt all dt/reset 10 NULL NULL 0.05 units box

run 100000
No /omp style for force computation currently active
Per MPI rank memory allocation (min/avg/max) = 107 | 107 | 107 Mbytes
Step Time Temp c_mean_displacement v_volume v_force c_vmax Dt S/CPU CPULeft 
       0           25   0.25609312    1.0210608   0.49780722        0.002    3.9242158  0.010914813            0            0 
     100    26.052559   0.25623285    1.0433573   0.49780722        0.002    3.5862643  0.010903668    104.26887    958.09994 
     200    27.140856   0.25694742    1.0661119   0.49780722        0.002     4.060559  0.011542015    104.22855    957.32648 
     300    28.292197   0.25762643    1.0901746   0.49780722        0.002    3.7656297  0.010691802    105.60622    952.26931 
     400    29.355212   0.26005231    1.1111512   0.49780722        0.002      3.98994  0.011377688    105.09169    950.42158 
     500    30.469373   0.26007338     1.135127   0.49780722        0.002    3.9151446   0.01065959    104.43786    950.11775 
     600    31.599236   0.26229597    1.1557388   0.49780722        0.002    3.9470031   0.01081542    102.10406    953.22182 
     700    32.694038   0.26150817    1.1770048   0.49780722        0.002    4.0284357  0.010855157    106.11837    949.90351 
     800    33.846195   0.26271795    1.1983717   0.49780722        0.002    3.9176337  0.011689183    103.61556     950.0017 
     900    34.980942   0.26308253    1.2213606   0.49780722        0.002    3.6588014  0.010864311    103.94805    949.52367 
    1000    36.097839   0.26472836    1.2422086   0.49780722        0.002    4.1404993  0.011342441    103.33534    949.51356 
    1100    37.190276   0.26525155     1.262142   0.49780722        0.002    3.7340494  0.011428452    105.71306    947.37236 
    1200    38.296802    0.2652457     1.284231   0.49780722        0.002    3.8137674  0.010765564    103.14118    947.37245 
    1300     39.38745    0.2650333    1.3057946   0.49780722        0.002     3.777777  0.010975875     106.4982    944.90302 
    1400    40.503761   0.26604702    1.3278938   0.49780722        0.002    3.7975091  0.011169137    105.89225    943.03062 
    1500    41.597239   0.26732623    1.3476515   0.49780722        0.002    4.2132909  0.010542664    105.92054    941.26541 
    1600    42.680244   0.26730402    1.3676277   0.49780722        0.002    3.9784341  0.012177163    104.70951    940.27437 
    1700    43.747004   0.26714844    1.3883078   0.49780722        0.002    5.0327596 0.0095037876    105.28545    938.98548 
    1800    44.827286   0.26748407    1.4076868   0.49780722        0.002    3.8194842  0.011158907    106.28789    937.24557 
    1900    45.928884   0.26809599    1.4281273   0.49780722        0.002    3.8392483  0.010710278    104.99173    936.18948 
    2000    46.943995   0.26907036    1.4476676   0.49780722        0.002    3.8040843  0.010729009    104.42226     935.3982 
    2100    48.006852   0.26869854    1.4676796   0.49780722        0.002    4.6339923  0.010323961    103.57426    934.95671 
    2200     49.03432   0.26857528    1.4869671   0.49780722        0.002    3.7360062  0.011266429    103.90258    934.33191 
    2300    50.131123   0.26928117    1.5063125   0.49780722        0.002    4.8393441  0.010149647    104.51143    933.43956 
    2400    51.176532   0.26927595    1.5253746   0.49780722        0.002    3.9028459  0.011605965    106.16411    931.93612 
    2500    52.285961   0.26962378     1.544428   0.49780722        0.002    3.8855422  0.010732115    103.34838    931.47846 
    2600    53.360014   0.27093915    1.5631589   0.49780722        0.002    3.7568352 0.0099604404    103.61472     930.8884 
    2700    54.403556    0.2712078    1.5814455   0.49780722        0.002    4.0053209  0.011492768    103.68182    930.24804 
    2800    55.473789   0.27057305    1.6020924   0.49780722        0.002    3.7759593  0.011153522    105.03882    929.15199 
    2900    56.545623   0.27057813     1.622986   0.49780722        0.002    4.2916125   0.01123937    106.07851    927.75344 
    3000    57.596459   0.27175077    1.6437383   0.49780722        0.002    3.7770846  0.011352638    102.17865    927.54863 
    3100    58.693115   0.27178929    1.6652077   0.49780722        0.002    3.5581441  0.010580203    104.65201     926.5709 
    3200    59.760862   0.27299054    1.6847897   0.49780722        0.002    3.8025821  0.010399284    105.35064    925.40286 
    3300    60.837622   0.27262654    1.7052687   0.49780722        0.002    3.5722153 0.0094365205     105.1996    924.28802 
    3400    61.897393   0.27162314    1.7255489   0.49780722        0.002    4.1878109  0.011238816    105.68187     923.0596 
    3500    62.996326   0.27063758    1.7474052   0.49780722        0.002    4.5519063  0.010484762    103.83614    922.31104 
    3600      64.0646   0.27236642    1.7684506   0.49780722        0.002    3.8895684  0.010833267     105.0525    921.25198 
    3700    65.153209   0.27280619    1.7895846   0.49780722        0.002    4.0388165  0.010855486    101.70313    921.01463 
    3800    66.215557    0.2737739    1.8102803   0.49780722        0.002    3.8491706   0.01040087    103.68249    920.26279 
    3900    67.247402   0.27291646    1.8308073   0.49780722        0.002    4.1027737  0.010067583    104.97068    919.20845 
    4000    68.284234   0.27228299    1.8520645   0.49780722        0.002    3.8257641  0.011112918    102.94102    918.60996 
    4100    69.358808   0.27253666    1.8738106   0.49780722        0.002    4.4084299   0.01038239    105.16276    917.51324 
    4200    70.432243   0.27288371    1.8945005   0.49780722        0.002    3.8851949  0.011509354    105.25982    916.40346 
    4300    71.519227   0.27246309    1.9158915   0.49780722        0.002    4.1232273   0.01075852    104.16428    915.52349 
    4400    72.576255   0.27301061    1.9362474   0.49780722        0.002    3.9867513  0.010869819    102.88998    914.89822 
    4500    73.656254   0.27344419    1.9583585   0.49780722        0.002    4.1106623  0.010739083    104.37204    913.96465 
    4600    74.728296   0.27275765    1.9807321   0.49780722        0.002    4.1871414   0.01114694    105.05526    912.90079 
    4700    75.816332   0.27311865    2.0029071   0.49780722        0.002    4.2684466  0.011204191    104.57832    911.92972 
    4800    76.844598   0.27317721    2.0245303   0.49780722        0.002    3.8683312  0.010624109    105.42508    910.80694 
    4900    77.886533   0.27308107    2.0468391   0.49780722        0.002    4.4227952 0.0098575207    103.80001    909.97949 
    5000    78.938048   0.27305677    2.0688596   0.49780722        0.002    3.6418607 0.0098023063    103.89288    909.13024 
    5100    80.023437   0.27340077     2.090734   0.49780722        0.002    4.1515953 0.0098365647    105.31514    908.03467 
    5200    81.086406   0.27366419    2.1129656   0.49780722        0.002    4.2287667  0.010421271    105.44008     906.9242 
    5300    82.125784   0.27281722    2.1345751   0.49780722        0.002    3.5680791  0.011182375    104.97078    905.89561 
    5400     83.23257   0.27393766    2.1585736   0.49780722        0.002    3.7328895  0.010825301    102.53097    905.26696 
    5500    84.313047   0.27340426    2.1813358   0.49780722        0.002    3.7141431  0.010421376    103.36078    904.49117 
    5600    85.359834   0.27316191    2.2023946   0.49780722        0.002    3.8465225  0.010438189    105.68469    903.34991 
    5700    86.422156   0.27376805    2.2241688   0.49780722        0.002    3.6524042  0.010320308    104.10841    902.45249 
    5800    87.505037   0.27314778    2.2477126   0.49780722        0.002    4.2635481  0.009744862    104.53058    901.48992 
    5900    88.534859   0.27367553    2.2695628   0.49780722        0.002    4.3666129  0.011091656    105.04355    900.45303 
    6000    89.585909   0.27260373    2.2913758   0.49780722        0.002    4.0644159   0.01042888    101.86236    899.88475 
    6100    90.602416   0.27367672    2.3129038   0.49780722        0.002    4.1734153 0.0090362092    103.40907    899.07688 
    6200    91.661755   0.27375138     2.336095   0.49780722        0.002    4.2951558  0.010878193    105.38296    897.98982 
    6300     92.70988    0.2740464    2.3598159   0.49780722        0.002    3.8597941   0.01056516    105.52364    896.88837 
    6400    93.783802   0.27383949    2.3840704   0.49780722        0.002    4.3675736   0.01074042    104.11417    895.97933 
    6500    94.812287   0.27550355    2.4059229   0.49780722        0.002    3.9038706  0.011009642    105.17692    894.92911 
    6600    95.871971   0.27491033     2.429629   0.49780722        0.002    3.9872588   0.01090519    104.37827    893.98485 
    6700    96.968974   0.27405627    2.4532263   0.49780722        0.002    3.8960499  0.010647284    104.82453    892.98338 
    6800    98.050215   0.27356963    2.4767677   0.49780722        0.002    4.4280782  0.010253178    105.76493    891.86705 
    6900    99.109311    0.2740696    2.5000468   0.49780722        0.002    3.7404915   0.01121018    104.37357    890.92574 
    7000    100.16849   0.27457397    2.5235446   0.49780722        0.002    4.1608859  0.010720587    102.67795    890.19415 
    7100     101.2302   0.27379136    2.5477217   0.49780722        0.002    4.8091277  0.010184338    102.05685    889.53329 
    7200    102.25802     0.273911    2.5705955   0.49780722        0.002    4.3685397  0.010211941    105.43462    888.45898 
    7300     103.3014   0.27383999    2.5941634   0.49780722        0.002    4.4258209  0.010792818    104.17179    887.53412 
    7400    104.35947   0.27402682    2.6180108   0.49780722        0.002    4.3768317  0.010566149    103.16297    886.72577 
    7500    105.41787   0.27506579    2.6420144   0.49780722        0.002     3.848328  0.011756685    104.73595    885.73359 
    7600     106.4774   0.27481659    2.6679127   0.49780722        0.002    3.6810099 0.0093113276    105.35043    884.67468 
    7700    107.53493   0.27400387    2.6935227   0.49780722        0.002    3.6557786 0.0099104186    103.24596    883.85055 
    7800    108.60224    0.2739444    2.7182217   0.49780722        0.002    3.6682061  0.011464001    103.39913    883.00574 
    7900    109.68896   0.27477402    2.7430638   0.49780722        0.002    4.0070934  0.010918546    104.10161    882.08177 
    8000    110.73963   0.27506475    2.7681882   0.49780722        0.002     3.808065 0.0099103382    103.41432    881.23029 
    8100    111.78298   0.27439966    2.7930601   0.49780722        0.002    3.8437668  0.011565105    103.37393    880.38025 
    8200     112.8277   0.27458094    2.8175315   0.49780722        0.002    4.6437587    0.0098254    105.42762    879.31639 
    8300    113.88799   0.27476959    2.8428712   0.49780722        0.002    4.0321071  0.011522443    104.95734    878.30226 
    8400    114.96264   0.27513731    2.8696622   0.49780722        0.002     3.930518  0.010937073    104.19381    877.36573 
    8500    116.04951   0.27475871    2.8972213   0.49780722        0.002    3.7237388   0.01067606    104.35124    876.41306 
    8600    117.09211   0.27562215    2.9213886   0.49780722        0.002    5.1563516 0.0094831281    104.86623    875.41025 
    8700    118.14082    0.2751032      2.94586   0.49780722        0.002    3.7372961 0.0093343042    105.40393    874.35752 
    8800    119.14172   0.27630464    2.9692462   0.49780722        0.002    4.2786518  0.010315578    104.27986    873.41312 
    8900    120.20497   0.27534658    2.9951086   0.49780722        0.002    4.1231729  0.010621262    104.61476      872.437 
    9000    121.28164   0.27550646    3.0232371   0.49780722        0.002    4.0613796  0.010483255    101.30276    871.77731 
    9100    122.33638   0.27518661    3.0485903   0.49780722        0.002    3.9934805   0.01033675    104.71422    870.78918 
    9200    123.36972   0.27514785    3.0738191   0.49780722        0.002    4.4382037  0.010007662    106.07245    869.68108 
    9300    124.41074   0.27577732     3.100645   0.49780722        0.002    3.6794044  0.010962259    104.76635    868.69116 
    9400    125.46392   0.27539207    3.1270595   0.49780722        0.002    4.1196429  0.011408745    105.70054    867.62068 
    9500    126.50613   0.27608314    3.1537834   0.49780722        0.002    4.1486527 0.0091826873    105.38407    866.57989 
    9600    127.53823   0.27638722    3.1814364   0.49780722        0.002    3.6498817  0.010095174    105.88957    865.49836 
    9700    128.58864   0.27596428    3.2089081   0.49780722        0.002    4.4226141  0.010558723    107.17505    864.31421 
    9800    129.66421   0.27582252    3.2366579   0.49780722        0.002    4.4903701 0.0098910921    104.86248    863.32457 
    9900    130.70267   0.27673918    3.2634369   0.49780722        0.002    4.1271202  0.010089611    106.30122    862.21819 
   10000    131.76985   0.27569055    3.2911431   0.49780722        0.002     3.877625  0.010393438    103.30673    861.36054 
   10100    132.84986   0.27514458    3.3204463   0.49780722        0.002     3.771914  0.010033218    105.51998    860.31999 
   10200    133.88968   0.27657272    3.3471586   0.49780722        0.002    3.9925951  0.010243093    102.65285    859.51429 
   10300    134.93689   0.27612176    3.3736742   0.49780722        0.002    4.1882566   0.01066562     105.6081    858.46792 
   10400     135.9824   0.27679246    3.4016424   0.49780722        0.002     3.949413  0.010513989    104.99604    857.47102 
   10500    137.01674   0.27565948    3.4296078   0.49780722        0.002    3.9753335  0.010816386    105.27599    856.45337 
   10600    138.05802   0.27543093    3.4577581   0.49780722        0.002    4.3607681  0.010774085    104.48493    855.49766 
   10700    139.12346   0.27546315    3.4848364   0.49780722        0.002    3.6979619  0.010893105    103.89458    854.58731 
   10800    140.08502   0.27579749    3.5102996   0.49780722        0.002    4.1937653  0.010585991    104.56589    853.62496 
   10900     141.1237   0.27695117    3.5382836   0.49780722        0.002    3.9923314  0.010019135    105.87501    852.56606 
   11000    142.17864   0.27664259    3.5676917   0.49780722        0.002    4.5903328 0.0093696285    103.95635    851.65028 
   11100    143.23183   0.27630332    3.5973771   0.49780722        0.002    3.9487177  0.010707678    104.57791    850.68788 
   11200    144.30676   0.27622698     3.626609   0.49780722        0.002    4.5223336  0.010198938    105.24609    849.67746 
   11300    145.36283   0.27612673    3.6554196   0.49780722        0.002    4.3212996  0.010034246    103.60322    848.78637 
   11400    146.40823   0.27701467    3.6843262   0.49780722        0.002    3.8586507  0.011113854    104.25223    847.84727 
   11500    147.46136   0.27707211    3.7134108   0.49780722        0.002    3.9168665   0.01050563     105.7133    846.80582 
   11600    148.51081   0.27596997     3.741624   0.49780722        0.002    4.2386717   0.01055393     104.0061    845.88433 
   11700    149.57677   0.27594739    3.7708628   0.49780722        0.002    4.7978308   0.00987781    105.78875    844.83988 
   11800     150.6199   0.27616217    3.8000941   0.49780722        0.002    3.9683475  0.010393627     105.0193    843.84888 
   11900    151.65771   0.27723437    3.8281418   0.49780722        0.002    4.2449973  0.010846135    104.24039    842.91121 
   12000    152.70784   0.27699225    3.8586501   0.49780722        0.002    3.9087486  0.010184265    103.53499    842.02118 
   12100    153.74008   0.27734494    3.8879726   0.49780722        0.002    4.1383842 0.0098799698    103.40267    841.13873 
   12200    154.78322   0.27692953    3.9174868   0.49780722        0.002    4.2717246  0.010627425    104.66765    840.17085 
   12300    155.81569   0.27640249    3.9458975   0.49780722        0.002    3.7485234  0.010888413    105.49781    839.14956 
   12400    156.87243   0.27590203    3.9747432   0.49780722        0.002    4.1339385  0.009342063    104.55491    838.18986 
   12500    157.86936   0.27618863    4.0017843   0.49780722        0.002    4.3396678  0.010083779    105.33368    837.18071 
   12600    158.90658   0.27708242    4.0313175   0.49780722        0.002    4.2450327  0.010513184    105.83747    836.14116 
   12700    159.93782   0.27612591    4.0606358   0.49780722        0.002    4.2326977  0.010820083    105.17626    835.14393 
   12800    161.00236   0.27570416    4.0908737   0.49780722        0.002    4.3970226  0.010456664    104.34916    834.19877 
   12900    162.04609    0.2762563    4.1201789   0.49780722        0.002    4.1292611  0.010035435    104.85611    833.22212 
   13000    163.10106   0.27712525    4.1503439   0.49780722        0.002    4.4558672  0.010695188    105.94028    832.18051 
   13100    164.16158   0.27689407     4.180821   0.49780722        0.002    4.2227444  0.010490216    103.05304    831.31582 
   13200    165.21149   0.27725639    4.2111422   0.49780722        0.002    3.9571739  0.010899908    105.87648    830.27936 
   13300    166.23927   0.27704478    4.2407304   0.49780722        0.002    4.2744396  0.010232097    104.47168    829.32708 
   13400    167.25489   0.27774219    4.2695201   0.49780722        0.002    4.2874195    0.0108633    104.89867    828.34955 
   13500    168.34533   0.27676336    4.3005892   0.49780722        0.002     3.987506  0.010877862    104.06065    827.42157 
   13600    169.37698   0.27726004    4.3297376   0.49780722        0.002    3.8510877  0.010588577    104.26169    826.48133 
   13700      170.395   0.27733361    4.3590691   0.49780722        0.002     4.276263  0.010066632     105.2048    825.48665 
   13800    171.45173   0.27720751    4.3889328   0.49780722        0.002     3.717743 0.0098515418    104.29464    824.54443 
   13900    172.48309   0.27688579     4.417467   0.49780722        0.002    4.3426378 0.0097075005    104.60866    823.58414 
   14000    173.51399   0.27585157    4.4484096   0.49780722        0.002    4.2229731 0.0097875887    104.07008     822.6543 
   14100     174.5309   0.27763429    4.4780701   0.49780722        0.002    4.0859658  0.011130132    104.04496    821.72543 
   14200    175.59431   0.27758583    4.5091616   0.49780722        0.002    4.0477448  0.010846109    104.24169    820.78515 
   14300    176.65836   0.27681303    4.5402712   0.49780722        0.002    3.9233631 0.0096830853    103.39796    819.89152 
   14400    177.73462   0.27810504    4.5704258   0.49780722        0.002    4.4790452  0.010507792    103.90528    818.96879 
   14500    178.78181   0.27741442    4.6007761   0.49780722        0.002    3.9377554 0.0096575163    104.18436    818.03032 
   14600    179.81865   0.27558583    4.6302025   0.49780722        0.002    4.2141214  0.011287591    105.50193    817.02144 
   14700     180.8873    0.2776509    4.6605519   0.49780722        0.002    3.9301445  0.010833651    104.11115    816.08686 
   14800    181.92214   0.27748392    4.6909719   0.49780722        0.002    4.1239344  0.010362749    103.87947    815.16426 
   14900     182.9726   0.27752855    4.7217244   0.49780722        0.002    4.3989777  0.010345602    105.29896    814.16701 
   15000     184.0208   0.27871153     4.752049   0.49780722        0.002    3.8727168 0.0094648206    102.97433    813.29188 
   15100    185.04137   0.27761224    4.7819975   0.49780722        0.002    4.4574388  0.010556523    106.63879    812.22785 
   15200    186.06672    0.2777848    4.8129143   0.49780722        0.002    4.2926152 0.0099562758    102.85547    811.35791 
   15300    187.08267   0.27688982    4.8426769   0.49780722        0.002    3.9064988 0.0099417283    103.94988    810.42998 
   15400    188.10435   0.27804747    4.8726478   0.49780722        0.002    4.2016545   0.01032128    102.94984    809.55294 
   15500    189.14727    0.2772367    4.9018629   0.49780722        0.002    4.1787803  0.010349319    104.09942     808.6162 
   15600    190.20465   0.27749951    4.9311714   0.49780722        0.002    4.3832657  0.010782997    103.50489    807.70901 
   15700    191.26562   0.27730607    4.9621241   0.49780722        0.002    3.6982045  0.010467783    104.70525     806.7416 
   15800    192.32568   0.27767709    4.9918045   0.49780722        0.002    4.2147277  0.011439476    105.20179    805.75032 
   15900    193.39899   0.27820957    5.0222085   0.49780722        0.002    4.1430202  0.010100684    102.53844    804.89014 
   16000    194.44625   0.27675534    5.0531105   0.49780722        0.002     3.921777  0.011198298    103.52955    803.97951 
   16100    195.52638   0.27813884    5.0835831   0.49780722        0.002    3.8228218  0.010016628    103.43957    803.07258 
   16200    196.55867   0.27834597    5.1128022   0.49780722        0.002    3.9715677  0.010621335    103.73937    802.15044 
   16300     197.5883   0.27795054    5.1419777   0.49780722        0.002    4.1761996  0.010147139    104.37881    801.19748 
   16400      198.596   0.27936735    5.1702201   0.49780722        0.002    4.5143913  0.010129681    103.87193    800.26829 
   16500    199.54562   0.27915603    5.1972228   0.49780722        0.002    4.3830864 0.0095247845    104.07744    799.32907 
   16600    200.56001   0.27867353    5.2259467   0.49780722        0.002    3.7115212  0.011022245    104.37388    798.37588 
   16700    201.57278   0.27867333    5.2535436   0.49780722        0.002    3.9200005 0.0097557166    103.24552    797.47485 
   16800    202.60244   0.27857133    5.2821143   0.49780722        0.002    4.0864492 0.0095917206    105.43395    796.47347 
   16900    203.63042   0.27743009    5.3118716   0.49780722        0.002    4.3198708  0.010671718    106.55234    795.42375 
   17000    204.62207   0.27844581    5.3396489   0.49780722        0.002    4.5812144 0.0094339847     102.3467    794.56364 
   17100    205.65865   0.27764789    5.3683648   0.49780722        0.002    4.6654525  0.010028872    104.40516    793.60876 
   17200    206.68525   0.27773894    5.3977283   0.49780722        0.002    3.9452054  0.010421485    105.23714     792.6174 
   17300    207.73161   0.27709311    5.4274665   0.49780722        0.002    4.3417916   0.01062692    104.92244    791.64014 
   17400    208.77983   0.27871719    5.4562617   0.49780722        0.002    4.2501483  0.010798499    104.19717    790.69465 
   17500    209.80398   0.27830056    5.4847026   0.49780722        0.002    3.7829799  0.011305427    105.04355    789.71255 
   17600     210.8366   0.27733247    5.5136149   0.49780722        0.002    3.8045852 0.0098496581    105.38052    788.71653 
   17700    211.88907   0.27829793    5.5430378   0.49780722        0.002    4.3206106  0.010736104    106.74363    787.66469 
   17800    212.91627   0.27860332    5.5707036   0.49780722        0.002    3.9451646  0.010670279    103.04349     786.7695 
   17900    213.92606   0.27800565    5.5987562   0.49780722        0.002    4.4705268  0.010576321    100.78624    785.97316 
   18000    214.96175   0.27764528    5.6276267   0.49780722        0.002    4.2814085  0.010497621    93.189609    785.54311 
   18100    215.97828   0.27683858    5.6551456   0.49780722        0.002    3.7365465  0.010637755    95.005183    785.01316 
   18200    217.00171   0.27792791    5.6838083   0.49780722        0.002    4.6113983  0.010357756    98.676666    784.30144 
   18300    218.02732   0.27741336    5.7121166   0.49780722        0.002    4.5131976  0.010327642    105.15798    783.30758 
   18400    219.07459   0.27841772    5.7418359   0.49780722        0.002    4.0329362  0.010759699    102.97135    782.40373 
   18500     220.1149   0.27863995    5.7717328   0.49780722        0.002    4.1221428 0.0089852825    103.32394    781.48457 
   18600    221.16732   0.27832239    5.8011095   0.49780722        0.002     4.178989  0.010619145    104.86379    780.50267 
   18700    222.23156   0.27870378    5.8300852   0.49780722        0.002    4.4246615 0.0085183352    102.80399    779.60415 
   18800    223.24946   0.27825107    5.8575579   0.49780722        0.002    3.7253069   0.01050824    106.02957    778.57703 
   18900    224.20685   0.27735089    5.8853921   0.49780722        0.002    3.7842623 0.0092601732    103.84897    777.63578 
   19000    225.09597   0.27690029    5.9107189   0.49780722        0.002    3.9098873  0.010097966    103.73657    776.69874 
   19100    226.09862   0.27818169    5.9392432   0.49780722        0.002    3.9303887 0.0098250237    102.75951    775.80025 
   19200    227.12448   0.27829262    5.9685326   0.49780722        0.002    4.0583833  0.010395863    105.16421    774.80733 
   19300    228.16858   0.27770497    5.9980444   0.49780722        0.002    3.9049555  0.010351662    105.87533    773.78815 
   19400    229.21869   0.27697158    6.0277896   0.49780722        0.002    3.6241501  0.010094057    106.53599     772.7454 
   19500    230.26806   0.27825663    6.0582435   0.49780722        0.002    4.1058086  0.010467287    103.07153    771.83396 
   19600    231.30696    0.2774985    6.0878534   0.49780722        0.002    4.6830571  0.010576304      103.724    770.89689 
   19700    232.33093    0.2786794    6.1167245   0.49780722        0.002     4.182774  0.010947742    105.67452    769.88701 
   19800    233.37159   0.27739837     6.146501   0.49780722        0.002    4.1458286  0.010787453    105.53856    768.88271 
   19900    234.42525   0.27784731    6.1774414   0.49780722        0.002    4.1791357  0.010098501    102.69185     767.9847 
   20000      235.482   0.27833148    6.2090928   0.49780722        0.002    4.3173019   0.01122677    103.14265    767.06892 
   20100    236.51171   0.27785921    6.2398481   0.49780722        0.002    4.2854289  0.010544299    103.27613    766.14761 
   20200    237.55973   0.27755558    6.2702363   0.49780722        0.002    3.9376888 0.0095705889    104.34623    765.18662 
   20300    238.59847   0.27769025    6.3002992   0.49780722        0.002    3.9484232  0.011119519    103.18875    764.26785 
   20400    239.64111   0.27776833    6.3321466   0.49780722        0.002    3.9388741  0.010377691    103.67442    763.33088 
   20500    240.66352   0.27730213    6.3633421   0.49780722        0.002    3.8880054  0.010945118     105.5731    762.32636 
   20600    241.72468   0.27891113    6.3957214   0.49780722        0.002    4.5011821 0.0093465736    103.33012    761.40165 
   20700    242.72898   0.27848008    6.4264909   0.49780722        0.002    4.6099527 0.0098553303    103.14308    760.48325 
   20800    243.73413   0.27873957    6.4563771   0.49780722        0.002    3.8639711   0.01031807    104.12438    759.52956 
   20900    244.74431   0.27841554    6.4889672   0.49780722        0.002    3.6804835  0.010504054    104.44954     758.5645 
   21000    245.78518   0.27930428    6.5207995   0.49780722        0.002    3.9625656 0.0095355176    102.37626    757.67245 
   21100    246.76362    0.2790936     6.550953   0.49780722        0.002     4.402467  0.010400661    103.18863    756.75083 
   21200    247.77044   0.27897295    6.5812338   0.49780722        0.002    4.1715622  0.010084521     104.4368    755.78573 
   21300    248.81135   0.27825104    6.6129108   0.49780722        0.002    4.0466656 0.0099764978    104.66961    754.81282 
   21400    249.84609   0.27830757    6.6445022   0.49780722        0.002     3.972994  0.010509128    103.67229    753.87383 
   21500     250.8692   0.27795215    6.6754663   0.49780722        0.002    3.7489085  0.009776072    104.63851    752.90209 
   21600    251.89698   0.27831383    6.7059015   0.49780722        0.002    3.8385709  0.010444356    104.67335    751.92934 
   21700    252.94923   0.27982041    6.7371931   0.49780722        0.002    4.6254605 0.0099651728    103.46215     750.9971 
   21800    253.98664   0.27952573     6.768297   0.49780722        0.002    4.3656862  0.011178404    105.12319    750.00976 
   21900    255.02326    0.2795046    6.7990219   0.49780722        0.002     3.812971 0.0094618541    104.31096    749.04918 
   22000    256.06378   0.27921857    6.8304561   0.49780722        0.002    3.6711495 0.0096316229    105.31649    748.05616 
   22100     257.1016   0.27901019    6.8623729   0.49780722        0.002    3.9026705  0.010564525    101.76304     747.1804 
   22200    258.13477   0.27833022    6.8944834   0.49780722        0.002    4.2621096 0.0091208802     104.4824    746.21405 
   22300    259.15381   0.27847982     6.924951   0.49780722        0.002    3.8402206  0.010892161    103.78804    745.27009 
   22400    260.19987   0.27846031    6.9560573   0.49780722        0.002     3.954786  0.011241535    104.24487    744.31133 
   22500    261.24217   0.27873182    6.9874902   0.49780722        0.002    4.1922439  0.010031611    104.68868    743.33855 
   22600    262.24622   0.27909625    7.0183033   0.49780722        0.002    4.5533264 0.0079430785     104.1876    742.38167 
   22700    263.21731   0.27757558    7.0485874   0.49780722        0.002    4.1098098 0.0098326275     103.2773    741.45357 
   22800    264.25602    0.2781508    7.0805347   0.49780722        0.002    3.8354628  0.010261386    105.91784    740.44338 
   22900    265.29764   0.27839846    7.1128003   0.49780722        0.002    4.4319504  0.010325425    104.79446    739.46784 
   23000    266.26135    0.2780661    7.1422055   0.49780722        0.002    3.9272122 0.0098111624    103.46869    738.53343 
   23100    267.26852   0.27873135    7.1734708   0.49780722        0.002    3.8178589  0.010395989      104.219    737.57557 
   23200    268.30049   0.27957149    7.2059598   0.49780722        0.002    4.2086234   0.01056281    105.53832    736.57799 
   23300    269.34593   0.27859672    7.2395966   0.49780722        0.002    4.2419164  0.010107591    104.19347     735.6211 
   23400    270.38871   0.27838946    7.2726099   0.49780722        0.002    4.0364619  0.010757672    104.75078    734.64747 
   23500    271.41387   0.27786054    7.3051813   0.49780722        0.002    4.1385031  0.009821104    104.26942    733.68835 
   23600    272.41808   0.27883349    7.3370732   0.49780722        0.002    4.2166525  0.011216645    106.04418    732.67727 
   23700    273.44788   0.27974333     7.369849   0.49780722        0.002    4.1316871 0.0098041498    103.11917    731.75288 
   23800    274.46605   0.27885333    7.4039808   0.49780722        0.002    3.9051462  0.010367487    103.65359    730.81209 
   23900    275.51118   0.27895443    7.4369373   0.49780722        0.002     4.200877  0.010400293    105.87803    729.80657 
   24000    276.53466   0.27897683    7.4705909   0.49780722        0.002    3.6532474  0.010648215    102.07059    728.91313 
   24100    277.55487   0.27901575    7.5036106   0.49780722        0.002     4.079091  0.010053247    102.05425    728.01946 
   24200     278.5667   0.27839613    7.5351514   0.49780722        0.002    4.0690511  0.010353889    106.48166    726.99746 
   24300    279.58381   0.27757757    7.5675272   0.49780722        0.002     3.952264  0.009954175    104.34231    726.03614 
   24400    280.64712    0.2783926    7.6016408   0.49780722        0.002    3.9459968  0.010874672    104.40768    725.07297 
   24500    281.66979   0.27825202    7.6337164   0.49780722        0.002    4.3900692 0.0096300506    104.41922    724.10953 
   24600    282.69847    0.2783203    7.6660033   0.49780722        0.002    3.8691674  0.010465166    105.65096    723.11191 
   24700    283.74045   0.27877039    7.6992386   0.49780722        0.002    3.8125873  0.010576452    105.27113    722.12511 
   24800    284.78655   0.27930809     7.732594   0.49780722        0.002    4.5484735  0.010739548    104.00935    721.17355 
   24900    285.81421   0.27806765     7.765533   0.49780722        0.002    4.3268418  0.010611203    103.56577    720.23434 
   25000     286.8209    0.2787056    7.7977612   0.49780722        0.002      3.94362  0.011159307    103.24466    719.30393 
   25100    287.85805   0.27902728     7.830413   0.49780722        0.002    4.0039843  0.010514843    102.79608    718.38582 
   25200    288.87229   0.27833257    7.8624814   0.49780722        0.002    4.1706004 0.0097033954    104.78873    717.41237 
   25300    289.86295   0.27851754    7.8935853   0.49780722        0.002    3.8176661  0.010650316    105.33344     716.4245 
   25400     290.8914   0.27956442     7.927706   0.49780722        0.002    4.2925958  0.010581824    105.20106    715.44044 
   25500    291.88915   0.27898835    7.9597636   0.49780722        0.002    4.0212092  0.010377482    105.02877     714.4612 
   25600    292.92965   0.27876687     7.993181   0.49780722        0.002    3.9688967  0.009755313    104.53352    713.49529 
   25700    293.94769   0.27930494    8.0254312   0.49780722        0.002    4.0410406   0.01103392    102.98629    712.57099 
   25800    294.98927   0.27865522    8.0569379   0.49780722        0.002    3.7845412  0.010861512    103.66765    711.62798 
   25900    296.03566   0.27852799    8.0898708   0.49780722        0.002    3.8696423  0.010675663    105.12704    710.64649 
   26000    297.07342   0.27883775    8.1222592   0.49780722        0.002    4.8297098 0.0093211807    104.44574    709.68289 
   26100    298.07857   0.27906831    8.1538967   0.49780722        0.002    4.3369592 0.0094843471    103.38333     708.7472 
   26200    299.04364   0.27920029    8.1847473   0.49780722        0.002    4.7085827  0.010106966    105.57331    707.75475 
   26300    300.06215   0.27884306    8.2173005   0.49780722        0.002    3.9438413  0.010371433    104.08384    706.80063 
   26400    301.07356   0.27851779    8.2500254   0.49780722        0.002    4.2189944 0.0099246854    104.97475    705.82372 
   26500     302.0936   0.27880622    8.2830798   0.49780722        0.002    4.2828545 0.0099355259    103.85964    704.87537 
   26600    303.12832   0.27921341    8.3151431   0.49780722        0.002    3.8898181 0.0090455269    103.15594    703.94503 
   26700    304.10159   0.27900892    8.3455217   0.49780722        0.002    4.4067297   0.01047646     105.7947    702.94802 
   26800    305.09532   0.27839173    8.3770544   0.49780722        0.002    4.3641526 0.0093046168    102.63536    702.03087 
   26900    306.08741   0.27905893    8.4081334   0.49780722        0.002    4.0969895 0.0097544097     103.2531    701.09745 
   27000    307.12801   0.27912496    8.4402376   0.49780722        0.002    4.2673778  0.010667396    103.82791    700.14927 
   27100    308.17623   0.27893159    8.4736519   0.49780722        0.002    5.0247919  0.009415185    103.16076    699.21774 
   27200    309.20609   0.27893863    8.5064078   0.49780722        0.002    4.1564191  0.010130535    104.38718    698.25545 
   27300    310.23431   0.27984139    8.5386011   0.49780722        0.002    3.9643809  0.010204347    103.77017    697.30836 
   27400    311.23015   0.27887855    8.5700991   0.49780722        0.002    4.3142304   0.01048641    104.47369    696.34396 
   27500    312.27084    0.2776637    8.6024321   0.49780722        0.002    3.9471189  0.010615055    104.32053    695.38331 
   27600    313.31106   0.27760902    8.6344297   0.49780722        0.002    4.4619965  0.010286765    105.05692    694.40505 
   27700    314.29474   0.27851823    8.6668011   0.49780722        0.002    4.5905501 0.0085683563    104.05231    693.45097 
   27800    315.17762    0.2784324    8.6951585   0.49780722        0.002    4.0466774 0.0090166098    102.70083    692.52969 
   27900    316.17343   0.27852702       8.7275   0.49780722        0.002    4.1003097  0.010580723    106.12049    691.52694 
   28000    317.18668   0.27834561    8.7591164   0.49780722        0.002    4.2855255  0.010595189    104.44421    690.56352 
   28100    318.21932   0.27809981    8.7919764   0.49780722        0.002    4.0291532 0.0090898215    104.83213    689.59107 
   28200    319.19993   0.27857604    8.8236788   0.49780722        0.002    4.0716147  0.010341347    103.28552    688.65513 
   28300    320.22627   0.27969039    8.8568806   0.49780722        0.002    4.4566703 0.0097208157    104.89106     687.6814 
   28400    321.25785   0.27963193    8.8905317   0.49780722        0.002    3.9795586  0.010647063    104.83435    686.70912 
   28500     322.3023   0.27938186    8.9243821   0.49780722        0.002    4.4429609  0.010191061    105.99562    685.71076 
   28600    323.33715   0.27923069     8.957119   0.49780722        0.002    4.2783096 0.0096838842    104.53516    684.74568 
   28700    324.30274    0.2803963    8.9868681   0.49780722        0.002    4.1485786   0.01023573    104.80347    683.77458 
   28800    325.29752   0.27906569    9.0186789   0.49780722        0.002    4.3035255  0.010106896    105.30615    682.79233 
   28900    326.33993   0.27902023    9.0526188   0.49780722        0.002    4.0992001  0.010486624    104.26703    681.83359 
   29000    327.36762   0.27884584    9.0856218   0.49780722        0.002    3.9363799  0.011077942    102.42658    680.91705 
   29100    328.37481   0.27882252    9.1176289   0.49780722        0.002     3.932777  0.010719676    101.13719    680.03041 
   29200    329.42163   0.27827527    9.1508738   0.49780722        0.002    4.1644986  0.011321075    104.13413    679.07409 
   29300    330.49642   0.27985219     9.184362   0.49780722        0.002    4.1128094  0.010459728    103.58539       678.13 
   29400    331.53161    0.2795381    9.2174425   0.49780722        0.002    4.6756184  0.010559261    105.30462    677.14793 
   29500    332.56825   0.27871434      9.24949   0.49780722        0.002     4.494663  0.010306414    105.48824    676.16213 
   29600    333.60579   0.27952729    9.2821362   0.49780722        0.002    4.2001029  0.010383015    103.70982    675.21524 
   29700    334.63044   0.27951488    9.3145456   0.49780722        0.002    4.7253913  0.010225917    105.32136    674.23332 
   29800    335.63682    0.2787187    9.3465481   0.49780722        0.002      4.10563  0.011009559     104.0795     673.2783 
   29900    336.69463   0.27956854    9.3799775   0.49780722        0.002    4.4550605  0.010039158    104.45904    672.31506 
   30000    337.72029    0.2805085    9.4116241   0.49780722        0.002    4.2395663  0.010179398    104.76426    671.34535 
   30100    338.72829    0.2789635    9.4439935   0.49780722        0.002    4.0134049 0.0097817415    103.76911    670.39699 
   30200    339.76552   0.27985155    9.4765625   0.49780722        0.002    3.8091319  0.010154803    105.72332    669.40737 
   30300    340.78855   0.28033219    9.5096582   0.49780722        0.002    4.8097027 0.0099040093    104.97365    668.43357 
   30400    341.80937   0.28012746    9.5422453   0.49780722        0.002    3.9905913  0.010075762    106.25098     667.4337 
   30500    342.83657   0.27911161     9.575947   0.49780722        0.002    4.2008232  0.010029025    105.99776    666.43933 
   30600     343.8513   0.28029409    9.6083256   0.49780722        0.002     4.176762  0.010284907     104.5674    665.47456 
   30700    344.86189   0.28121842    9.6400555   0.49780722        0.002    3.9247103  0.010183577    104.31174    664.51514 
   30800    345.86622   0.27988358    9.6726165   0.49780722        0.002    4.1700014 0.0096874733    105.46476    663.53218 
   30900    346.87083   0.28107978    9.7042615   0.49780722        0.002    4.1297608  0.010481314    105.94285    662.53987 
   31000    347.90865   0.28023975    9.7368437   0.49780722        0.002    4.3795051   0.01068319    103.17012    661.60434 
   31100    348.95204   0.27942398    9.7679519   0.49780722        0.002    4.5349989   0.01017204    105.88016    660.61363 
   31200    349.94996    0.2799365    9.7996512   0.49780722        0.002    4.0690935  0.010054709    105.03771    659.63992 
   31300    350.98596     0.280072     9.832814   0.49780722        0.002    3.8878546  0.010602394    103.85023    658.69024 
   31400      352.031    0.2794523    9.8661865   0.49780722        0.002    3.9372473 0.0099089497    103.99109    657.73763 
   31500    353.04449   0.28043236    9.8978943   0.49780722        0.002    3.8980548  0.010055873    105.04113    656.76405 
   31600    354.07975   0.28050567     9.930106   0.49780722        0.002    4.2715807  0.010191742    104.15776    655.80809 
   31700    355.07869   0.28067283    9.9611833   0.49780722        0.002    4.0703664  0.010272679    105.75005    654.82096 
   31800    356.08551   0.28042856    9.9930796   0.49780722        0.002    4.5510843  0.010430822    104.51604    653.85803 
   31900    357.16815   0.28049924    10.026346   0.49780722        0.002    4.6286323 0.0099985452    101.99449    652.94564 
   32000    358.20764   0.27995756    10.057979   0.49780722        0.002     3.841738  0.010809443    103.96027    651.99343 
   32100    359.20486   0.27972123    10.088443   0.49780722        0.002    3.8201166  0.010775726    104.94589    651.02204 
   32200    360.23636   0.27858112     10.12025   0.49780722        0.002    4.6267818  0.010681126    102.84394    650.09178 
   32300     361.2786   0.28033361    10.152343   0.49780722        0.002     4.285814  0.010672766    103.90873    649.14038 
   32400     362.2938   0.27884242    10.184587   0.49780722        0.002    4.5879306 0.0089280596    104.13858    648.18447 
   32500    363.33809   0.28082372    10.216898   0.49780722        0.002    4.2517384  0.010748646    104.56774    647.22035 
   32600    364.37368   0.28031291    10.248099   0.49780722        0.002    4.3632158  0.010548783    102.52834    646.29561 
   32700    365.34793   0.28140709    10.277703   0.49780722        0.002    4.2719146 0.0088446925    101.67004    645.38751 
   32800    366.31917   0.28004479    10.307156   0.49780722        0.002    4.1909849  0.010395883    101.32359    644.48583 
   32900    367.31674   0.27983105    10.337507   0.49780722        0.002     4.310016  0.010300569    100.22289    643.60575 
   33000     368.3386   0.27914681    10.368284   0.49780722        0.002    4.7410512 0.0098635584    99.624428    642.73712 
   33100    369.35693   0.27997052    10.398751   0.49780722        0.002    4.3776387 0.0095771461    101.08678    641.83832 
   33200    370.35006   0.27964306    10.428453   0.49780722        0.002    4.1421724  0.010673062    101.94895    640.92215 
   33300     371.3669   0.28027431    10.458754   0.49780722        0.002    3.8979761 0.0096839632      99.8645    640.04659 
   33400    372.39169   0.28026112    10.488886   0.49780722        0.002    3.9644719  0.010494421    104.49615    639.08178 
   33500    373.37597   0.27991135    10.519244   0.49780722        0.002    4.4508487  0.010624993    105.84351    638.09284 
   33600     374.3473   0.28037349    10.548528   0.49780722        0.002    4.1895546  0.010444912    107.41359    637.07687 
   33700    375.36155   0.28057973    10.579945   0.49780722        0.002    4.6339975 0.0097483758     104.3924    636.11441 
   33800    376.36716   0.27963144    10.610931   0.49780722        0.002    4.0057039  0.010510068    105.58593    635.13076 
   33900    377.38449   0.27907897     10.64144   0.49780722        0.002    4.0571301  0.010417223    107.63822    634.11213 
   34000    378.42235   0.27930242    10.672325   0.49780722        0.002    3.9726821  0.010620414    104.87291    633.14157 
   34100    379.42161   0.28005963    10.702446   0.49780722        0.002    3.9328355  0.010361148    106.43621    632.14405 
   34200    380.41724   0.28028804    10.732494   0.49780722        0.002    3.9642224 0.0097315237    105.32847    631.16588 
   34300    381.39827   0.27938414    10.762564   0.49780722        0.002    4.2385739  0.010175563    105.23711    630.18945 
   34400    382.41429   0.27954382    10.793299   0.49780722        0.002    4.0371544  0.010917491    106.82426    629.18625 
   34500    383.43094   0.28138798    10.823718   0.49780722        0.002    4.3667152  0.011134066    105.17249    628.21136 
   34600    384.46903   0.28097832    10.855304   0.49780722        0.002    3.9343202  0.010612375    106.46158    627.21484 
   34700    385.49662   0.28012411    10.886082   0.49780722        0.002     4.163417  0.010780839    103.26505    626.27337 
   34800    386.52285   0.27985708    10.916231   0.49780722        0.002    3.7657091  0.010577927    106.12613    625.28283 
   34900     387.5542   0.27963411    10.946993   0.49780722        0.002    3.9292346 0.0099980436    105.01378    624.31118 
   35000    388.57049   0.27993206    10.978038   0.49780722        0.002    4.0837607  0.010563948    103.28646    623.36922 
   35100    389.60914   0.28050334      11.0085   0.49780722        0.002    4.3666588 0.0099949754    105.13091    622.39571 
   35200    390.61013    0.2800232    11.037545   0.49780722        0.002    3.9989041  0.010485698    106.53337    621.39927 
   35300    391.63832   0.27937174    11.068166   0.49780722        0.002     3.974437  0.010220841    107.04348    620.39496 
   35400     392.6457   0.27903583    11.098228   0.49780722        0.002     4.007786  0.010826721    107.34242    619.38629 
   35500     393.6739   0.27932868    11.130441   0.49780722        0.002    4.3381651  0.010798205     105.8266    618.40231 
   35600    394.72709   0.27936568    11.161271   0.49780722        0.002    4.3887413  0.010712665    104.62977    617.43809 
   35700    395.73085   0.28042993    11.191843   0.49780722        0.002     3.996269  0.009984091    104.43428    616.47715 
   35800    396.73071   0.28082241    11.222118   0.49780722        0.002    4.0753818 0.0099702367    104.95174    615.50776 
   35900    397.75928   0.28031488    11.253777   0.49780722        0.002    4.1472958 0.0095462882    105.15258    614.53521 
   36000    398.71257   0.27963888    11.282931   0.49780722        0.002    4.7064891 0.0099337728    104.69263    613.57021 
   36100    399.73056   0.28046131    11.313968   0.49780722        0.002    4.2092542  0.010529114    103.71669    612.62118 
   36200    400.76822   0.27999456    11.345771   0.49780722        0.002    4.0414599 0.0093629055    106.60117    611.62608 
   36300    401.74976   0.27959831    11.375267   0.49780722        0.002    4.2135295 0.0094989808    106.43416    610.63388 
   36400    402.70926   0.28039901    11.404059   0.49780722        0.002    4.0971762 0.0099690694    106.07481    609.64752 
   36500    403.74515   0.28029177    11.435371   0.49780722        0.002    4.0606135  0.010346749    104.72902    608.68249 
   36600    404.78008   0.28004338    11.465413   0.49780722        0.002    4.4293705  0.010046482    103.67293    607.73435 
   36700    405.79218    0.2806841    11.495418   0.49780722        0.002      3.93926 0.0097332875    103.93368    606.78196 
   36800    406.77601   0.28045351    11.525591   0.49780722        0.002    4.7786095  0.010190166    104.74869    605.81665 
   36900    407.74665   0.28074085    11.555562   0.49780722        0.002    3.9479502 0.0091448595    103.27323    604.87473 
   37000    408.75566   0.28089422    11.587225   0.49780722        0.002     4.434317 0.0097134229    103.66101    603.92649 
   37100    409.76895   0.28046091    11.618227   0.49780722        0.002    4.7192662  0.010405387    103.65507    602.97826 
   37200    410.75753   0.27947852    11.647749   0.49780722        0.002    3.9821665  0.010690817    102.79562    602.04356 
   37300    411.79442   0.28020578    11.678884   0.49780722        0.002    3.9267023  0.010577064    106.42057    601.05295 
   37400    412.85684   0.27983706    11.710697   0.49780722        0.002    4.3496515 0.0097747685    103.90389    600.10072 
   37500    413.85652   0.27969121    11.739964   0.49780722        0.002    4.1693371  0.010189844    104.07645    599.14576 
   37600    414.90017   0.27987662    11.770891   0.49780722        0.002     4.090847  0.011033215    104.35526    598.18652 
   37700    415.92809   0.27946964      11.8014   0.49780722        0.002    4.1558081 0.0097764307    104.63525    597.22304 
   37800    416.95811   0.28111741    11.831241   0.49780722        0.002    3.9998272  0.010781093    104.51766    596.26138 
   37900    417.96244   0.28018906    11.861349   0.49780722        0.002    4.1037975  0.010671638    105.60667    595.28357 
   38000    418.97845   0.28089061    11.892272   0.49780722        0.002    4.1006617  0.010287675    104.49495    594.32236 
   38100    420.01839   0.27958871     11.92446   0.49780722        0.002    4.4562321 0.0093888253    103.78267    593.37185 
   38200    421.03244    0.2803614    11.954578   0.49780722        0.002    4.0081377 0.0095013041    105.13091    592.40128 
   38300    422.06373   0.28025807    11.984693   0.49780722        0.002    3.9225741  0.010318139    104.29052    591.44315 
   38400     423.0764   0.27949255    12.015127   0.49780722        0.002     4.206103  0.011128449    105.53399     590.4669 
   38500    424.09726   0.28075372    12.045327   0.49780722        0.002     4.257124 0.0099534454    104.74406    589.50221 
   38600     425.1116   0.28131359    12.074526   0.49780722        0.002    3.8994982  0.010149578    105.19871    588.53101 
   38700    426.09009   0.28016092    12.103681   0.49780722        0.002    3.7814691   0.01001532    105.26672    587.55895 
   38800    427.12761   0.28084373    12.134321   0.49780722        0.002    3.9487143  0.010420069    102.67014    586.62489 
   38900    428.14859   0.28003543    12.164445   0.49780722        0.002    4.0200289 0.0098492783    104.32642    585.66634 
   39000    429.15278    0.2798352    12.193515   0.49780722        0.002    4.2637868  0.010596607    103.72356    584.71651 
   39100    430.17855   0.27990089    12.223087   0.49780722        0.002    3.7553295  0.010520497    103.23859    583.77365 
   39200    431.18384    0.2812233    12.251632   0.49780722        0.002    4.3827046 0.0099542213    104.11929    582.81796 
   39300    432.23173   0.28043018    12.282753   0.49780722        0.002    3.8908727  0.010276648    105.95846     581.8365 
   39400    433.25265   0.28023602    12.312098   0.49780722        0.002    4.0347001  0.010042663    105.13323    580.86662 
   39500    434.27478   0.28024379    12.341937   0.49780722        0.002    4.2507296  0.010501179    103.33697    579.92215 
   39600    435.32011   0.27953114    12.372953   0.49780722        0.002     4.502273  0.010165238    103.75446    578.97163 
   39700    436.31183   0.28027934    12.401767   0.49780722        0.002    3.8627041    0.0105505    105.46831    577.99726 
   39800    437.35307    0.2801784      12.4315   0.49780722        0.002     4.240524 0.0094326753    103.24125    577.05395 
   39900    438.36147   0.27963309    12.461714   0.49780722        0.002    4.0981332  0.011122313     105.6051    576.07786 
   40000    439.40577   0.27976726     12.49285   0.49780722        0.002    4.2719502  0.010571557    103.05879    575.13701 
   40100    440.40448   0.27973529    12.522925   0.49780722        0.002    4.3795332  0.010635689    103.04276    574.19624 
   40200    441.43603   0.28070953    12.553047   0.49780722        0.002    4.1016969   0.01051062    104.96141    573.22893 
   40300    442.45541   0.27972546    12.583847   0.49780722        0.002    5.1625339 0.0095207925    105.24609    572.25788 
   40400    443.45824   0.27921409    12.613411   0.49780722        0.002    4.0072747  0.010830502     107.0634    571.26313 
   40500    444.46843    0.2787507    12.643455   0.49780722        0.002    3.7737055  0.010214511    105.99375    570.28254 
   40600    445.51678   0.27867507    12.674673   0.49780722        0.002    3.9860367 0.0093936227    103.61395    569.33383 
   40700    446.51769   0.27947633    12.704033   0.49780722        0.002    4.3458361  0.010241954    105.49691    568.35994 
   40800    447.48274   0.28082718    12.731529   0.49780722        0.002    4.0606039 0.0096035162    104.85149    567.39464 
   40900    448.49542   0.27964704    12.761016   0.49780722        0.002    4.1730545  0.010561335    104.61508    566.43252 
   41000    449.54448   0.27992569    12.791941   0.49780722        0.002    4.0719195  0.010571541     102.9826    565.49223 
   41100    450.53233   0.28078967    12.820121   0.49780722        0.002    4.2354774 0.0099090303     104.7714    564.52803 
   41200    451.54044   0.27963741     12.84928   0.49780722        0.002    4.4581295 0.0093478453    103.57766    563.57958 
   41300    452.56412   0.28022274    12.879374   0.49780722        0.002    3.9413763  0.010727682    103.50306    562.63204 
   41400    453.56622   0.27902479    12.909912   0.49780722        0.002    4.2528123  0.010522147    103.59035    561.68325 
   41500    454.58398   0.28076243    12.940647   0.49780722        0.002    4.1408666 0.0097956542    104.30193     560.7251 
   41600    455.59152   0.28030822    12.971878   0.49780722        0.002    4.5025629  0.010406246    104.32663    559.76663 
   41700    456.65406   0.28068528    13.003584   0.49780722        0.002    4.2279423  0.010646265    102.78338    558.82828 
   41800    457.68948   0.27961006    13.034313   0.49780722        0.002    4.4260375  0.010482687    105.20124    557.85863 
   41900    458.72021   0.27879076    13.063441   0.49780722        0.002    4.4778675 0.0097249865    105.23769    556.88862 
   42000    459.71902   0.28107857    13.091213   0.49780722        0.002    4.0388866  0.011325033    103.55117    555.94007 
   42100    460.71673   0.28095444    13.118939   0.49780722        0.002    3.8290057  0.010296845    103.33397    554.99423 
   42200    461.71417   0.28077401    13.147838   0.49780722        0.002    4.1654568    0.0106534    105.34389      554.023 
   42300    462.73559   0.28194875     13.17732   0.49780722        0.002    3.8996475  0.010618424    103.75112    553.07174 
   42400     463.7462   0.28021671    13.205919   0.49780722        0.002    3.7855396  0.010348958    104.60328    552.10977 
   42500    464.75463   0.28127513    13.234842   0.49780722        0.002    3.9978058 0.0098797122    104.62504    551.14755 
   42600    465.76528   0.27966023    13.264272   0.49780722        0.002    4.2930656  0.010139639     105.5182    550.17446 
   42700    466.80244   0.27994607    13.293008   0.49780722        0.002    4.7479181 0.0099146846    104.73747    549.21098 
   42800    467.75963   0.28033691    13.319373   0.49780722        0.002    3.8377465  0.010465403    103.23424    548.26611 
   42900    468.79678   0.28024828    13.348846   0.49780722        0.002     3.920538  0.010522919    105.81886    547.28964 
   43000    469.81431   0.27957721    13.377966   0.49780722        0.002    4.0978911 0.0098502947    102.91667    546.34864 
   43100    470.83031   0.28032722    13.407309   0.49780722        0.002    4.3735253  0.010847486    101.86857    545.42069 
   43200    471.84911   0.27965037     13.43707   0.49780722        0.002    3.8506019  0.010673518    106.51067    544.43625 
   43300     472.8946   0.27999736    13.467398   0.49780722        0.002    4.7673825 0.0097042037    103.13532    543.49225 
   43400    473.91708   0.28024603    13.497301   0.49780722        0.002    4.1832873 0.0090752486    104.47431    542.53193 
   43500    474.90515   0.28001607    13.525072   0.49780722        0.002    4.2274042 0.0097208998    105.67217    541.55753 
   43600    475.86156   0.27982059    13.552204   0.49780722        0.002     4.465593  0.010321849    106.42713    540.57457 
   43700    476.88625   0.27938642    13.580984   0.49780722        0.002    4.3441116  0.010690286    104.90559    539.60937 
   43800    477.88982   0.27982177    13.609067   0.49780722        0.002    4.1174718 0.0099230594    104.66107    538.64708 
   43900    478.91544   0.27895089    13.637693   0.49780722        0.002    4.4478582  0.010656248    106.29503    537.66606 
   44000    479.94739   0.27988725    13.666692   0.49780722        0.002     3.900467 0.0094865778    104.11621    536.71027 
   44100    480.94127   0.28026583    13.693584   0.49780722        0.002    4.0671335 0.0099232978    102.51227    535.77351 
   44200    481.96944   0.28095608    13.721757   0.49780722        0.002    3.8662503  0.010605482    104.20033    534.81663 
   44300    483.01355   0.27923984    13.750765   0.49780722        0.002    4.8120856 0.0097941091    104.05286    533.86144 
   44400    484.03423   0.28079004    13.778089   0.49780722        0.002    4.0950688  0.011180592     104.2492    532.90396 
   44500    485.05571   0.28093827    13.805366   0.49780722        0.002    4.8527947  0.010097887    104.71443    531.94116 
   44600    486.06182   0.28035727    13.833483   0.49780722        0.002    4.3830281 0.0093068805    105.05174    530.97458 
   44700    487.07108   0.28039048    13.860329   0.49780722        0.002    4.2362882  0.010647617    103.83321    530.02189 
   44800    488.10085     0.279592    13.888553   0.49780722        0.002     3.692595  0.010505798    103.54284    529.07248 
   44900    489.12262   0.28078535    13.915319   0.49780722        0.002    4.6920811  0.010154388     104.9753    528.10682 
   45000    490.13957    0.2807748    13.942636   0.49780722        0.002    4.6951168   0.01042696    102.35874    527.17099 
   45100    491.19184   0.28003267     13.97207   0.49780722        0.002    4.4965011  0.010484006    104.81093    526.20715 
   45200    492.21412    0.2799568    13.999966   0.49780722        0.002    4.3020176  0.009743245    104.40604    525.24783 
   45300    493.21234    0.2804468    14.027635   0.49780722        0.002    4.1568141  0.010672855    104.00394      524.293 
   45400    494.24714   0.28079779     14.05599   0.49780722        0.002    4.3850898   0.01031068    104.67345    523.33074 
   45500    495.23184   0.28039906    14.082749   0.49780722        0.002    4.8097074 0.0099479308    105.12375    522.36361 
   45600    496.23879   0.28067171    14.110722   0.49780722        0.002    4.0687444 0.0099800926    104.97783    521.39813 
   45700    497.24623   0.28056984    14.137791   0.49780722        0.002    4.1224377  0.010547026    105.28067    520.42944 
   45800    498.26377   0.27997204    14.166568   0.49780722        0.002    4.8659122 0.0088658175    106.41344    519.44888 
   45900    499.27907   0.28096414     14.19395   0.49780722        0.002    4.0737797  0.010417246    106.05161    518.47227 
   46000    500.30154   0.28057211    14.222289   0.49780722        0.002    4.1761487  0.010174893    103.46226    517.52351 
   46100    501.31579   0.28109844    14.249815   0.49780722        0.002     3.831568 0.0097836798     102.3149    516.58734 
   46200    502.33277   0.28140692    14.277373   0.49780722        0.002     4.237902  0.010286012    104.39011    515.62837 
   46300     503.3511    0.2812345    14.304363   0.49780722        0.002    4.0604572 0.0097288258    104.20771    514.67135 
   46400    504.35264   0.28012364    14.331278   0.49780722        0.002    4.0050621  0.010755318    105.32622    513.70255 
   46500    505.37033   0.28057572    14.358237   0.49780722        0.002    4.4595994  0.010433247    104.85215    512.73877 
   46600    506.35891   0.27969373    14.384031   0.49780722        0.002     4.481929  0.010184874    105.38206    511.76954 
   46700    507.37407    0.2800683    14.410864   0.49780722        0.002    4.6914866  0.010240024    104.72104    510.80723 
   46800    508.37777   0.28051778    14.437089   0.49780722        0.002    4.2348965  0.010238606    104.44059    509.84786 
   46900    509.40823   0.28013584    14.464996   0.49780722        0.002    4.3158433  0.010262948    104.39471    508.88898 
   47000    510.43573   0.28023497    14.491705   0.49780722        0.002     4.358179 0.0098275037    103.24169    507.94217 
   47100    511.41031   0.28005716     14.51768   0.49780722        0.002    4.3088112  0.010152065    102.90278    506.99885 
   47200    512.42753   0.27993775    14.544977   0.49780722        0.002     4.097719 0.0098939164     104.7161    506.03659 
   47300    513.39484   0.28049854    14.570598   0.49780722        0.002    4.8028063 0.0094173163    103.71615    505.08461 
   47400      514.397   0.28107693    14.597089   0.49780722        0.002    4.0844343  0.010347698     104.3678     504.1259 
   47500    515.41101   0.28123141    14.623761   0.49780722        0.002    4.6311978  0.010127487    103.57649    503.17529 
   47600    516.39795    0.2814636    14.649969   0.49780722        0.002    4.2958407  0.010409499    104.39994    502.21622 
   47700    517.37775   0.28097949    14.676634   0.49780722        0.002    3.9313755 0.0097359746    104.30943    501.25808 
   47800    518.38062   0.28017058    14.703185   0.49780722        0.002    4.5367368  0.010843822    103.93595    500.30369 
   47900    519.40321    0.2814967    14.729974   0.49780722        0.002    4.4460247  0.010128266    104.55046    499.34313 
   48000    520.41373   0.28027732    14.756604   0.49780722        0.002    4.4247393 0.0088981348    103.50231    498.39307 
   48100    521.41565   0.28120405     14.78217   0.49780722        0.002    4.1017384  0.010109232     105.7154    497.42112 
   48200    522.41495   0.28069275    14.808726   0.49780722        0.002    3.9661168  0.010013272    106.02161    496.44634 
   48300    523.43075   0.27908026    14.836449   0.49780722        0.002    4.6131429  0.010811877    103.58206    495.49547 
   48400    524.44775   0.28037969    14.862791   0.49780722        0.002    3.9560138 0.0098551138    104.43168    494.53617 
   48500    525.46624   0.28060559    14.890609   0.49780722        0.002    4.1070192   0.01013562    104.47496    493.57646 
   48600    526.51608   0.28033338    14.919032   0.49780722        0.002    3.9184479  0.011112309    104.36879    492.61778 
   48700    527.55366   0.27936938     14.94689   0.49780722        0.002    3.9686635  0.010468273    103.97648    491.66291 
   48800    528.56877   0.28063923     14.97268   0.49780722        0.002    3.9147029  0.010469683    104.85849    490.69953 
   48900    529.60352   0.28070306    15.000552   0.49780722        0.002    4.1463487  0.010283067    104.97223    489.73511 
   49000    530.62955    0.2812839    15.028157   0.49780722        0.002    3.9049934 0.0095124562    104.54717    488.77477 
   49100    531.61466   0.28034684    15.055422   0.49780722        0.002     3.811434  0.010600764     104.0375     487.8193 
   49200    532.64481   0.28094367    15.082226   0.49780722        0.002    4.0659206 0.0098081181    104.39721    486.86039 
   49300    533.66254    0.2805954    15.108611   0.49780722        0.002    4.0125289 0.0099541944    106.60366    485.88109 
   49400    534.69349   0.28042535     15.13489   0.49780722        0.002    4.0531119 0.0095810886     104.4212    484.92204 
   49500    535.70536   0.28014425    15.161118   0.49780722        0.002    3.8973824  0.010729372    103.71979    483.96961 
   49600    536.71614   0.28059764    15.188036   0.49780722        0.002    4.5314304 0.0099916536     105.1632    483.00368 
   49700    537.73105   0.28084013    15.215697   0.49780722        0.002      4.27166 0.0096884088      104.512    482.04381 
   49800    538.69527   0.28017869    15.241616   0.49780722        0.002    4.7671343 0.0096719905    104.18131    481.08701 
   49900    539.73022   0.28110726     15.26931   0.49780722        0.002    4.0827999  0.010286448    105.47266     480.1184 
   50000    540.72503   0.28077939    15.295485   0.49780722        0.002    3.9458507 0.0095539562    105.67585    479.14805 
   50100    541.73217   0.27992669    15.321725   0.49780722        0.002    4.2898166 0.0098046358     104.9732    478.18411 
   50200    542.72881   0.28011705    15.348559   0.49780722        0.002    4.5922329  0.010676906    104.69506    477.22272 
   50300    543.74616   0.28051037    15.376201   0.49780722        0.002    4.1440162  0.009745106    104.87302    476.25975 
   50400    544.76169   0.28054459    15.403998   0.49780722        0.002    4.1173258  0.010247956    103.17512    475.31226 
   50500    545.80338   0.28033533    15.431713   0.49780722        0.002    3.9524952  0.010763933    104.51536    474.35251 
   50600    546.83738    0.2805726    15.458451   0.49780722        0.002    4.3661753 0.0094578432    103.66209    473.40045 
   50700    547.84181   0.27948911    15.485544   0.49780722        0.002    4.2044249  0.010353534     105.8042    472.42936 
   50800    548.86577   0.28087406    15.511884   0.49780722        0.002    4.2054298  0.011297318    104.27387     471.4718 
   50900    549.89432   0.28090495     15.53884   0.49780722        0.002    3.7093859   0.01055343    103.13659    470.52444 
   51000     550.8994   0.28070482    15.564715   0.49780722        0.002    4.4456245  0.010269988    101.64429    469.59066 
   51100    551.90513   0.28041465    15.590358   0.49780722        0.002    4.5954886  0.010508257    104.40332    468.63181 
   51200    552.90933   0.28130239    15.615973   0.49780722        0.002    3.9342949  0.010317363    105.02922    467.66752 
   51300    553.91579   0.27990685      15.6425   0.49780722        0.002    4.3058814  0.010898426    104.10962    466.71127 
   51400    554.94177   0.28059527    15.669749   0.49780722        0.002    4.0844671  0.010692897    103.50091    465.76034 
   51500    555.97398   0.28002049    15.697679   0.49780722        0.002    4.0616675  0.010237292    105.32569    464.79359 
   51600    557.00155   0.28047192    15.725383   0.49780722        0.002    4.0243071  0.010202056    104.53985    463.83359 
   51700    558.04211   0.28196976    15.753364   0.49780722        0.002    4.9372514 0.0098186144    105.29066    462.86724 
   51800    559.03205   0.28152935    15.780371   0.49780722        0.002    4.6887454 0.0091759099    105.32035     461.9007 
   51900    560.02563   0.27988719    15.806347   0.49780722        0.002    3.9864975 0.0092749969    105.16608    460.93552 
   52000    561.03968   0.28047133    15.833874   0.49780722        0.002    5.0719439 0.0094777827    103.97367    459.98047 
   52100    562.05488   0.27972982    15.860452   0.49780722        0.002    4.6715142  0.010303791     105.1487     459.0155 
   52200    563.07171   0.27993423    15.887967   0.49780722        0.002    4.0408151  0.010236435     106.1463     458.0424 
   52300     564.0618   0.28105446     15.91506   0.49780722        0.002    3.6029251 0.0094050995    103.05529     457.0952 
   52400    565.07423   0.28042286    15.943072   0.49780722        0.002    4.6348354  0.010000123    105.00064    456.13157 
   52500    566.06517   0.28031825    15.971238   0.49780722        0.002    4.7883777 0.0095027837    104.25876    455.17412 
   52600    567.00543   0.28047402    15.997247   0.49780722        0.002     4.185045  0.010297541    104.66624    454.21329 
   52700    568.03062   0.28085993    16.025602   0.49780722        0.002    4.2306183 0.0093830992    106.06421    453.24119 
   52800    569.01022   0.28091331    16.053186   0.49780722        0.002    3.7227354  0.010982993    104.46635    452.28208 
   52900     570.0386   0.28142783    16.082098   0.49780722        0.002    3.9357521 0.0097375972    104.59781    451.32192 
   53000    571.04492    0.2804589    16.110703   0.49780722        0.002    4.1646627  0.010304015    105.11126    450.35762 
[...]
   85300    896.87037   0.28072298    25.160922   0.49780722        0.002    4.7032277  0.010445583    105.43918    140.79846 
   85400    897.86912    0.2803335    25.189921   0.49780722        0.002    4.2953627 0.0095336012    104.27714    139.84085 
   85500    898.89237   0.28137569    25.219449   0.49780722        0.002    4.2127565 0.0096128682    104.23985    138.88329 
   85600    899.88177   0.28132621    25.247431   0.49780722        0.002    3.7928804   0.01068984    104.52008    137.92529 
   85700     900.9195   0.28159277    25.276987   0.49780722        0.002    4.8861455  0.010136912    103.19652    136.96935 
   85800    901.90959    0.2806898    25.304406   0.49780722        0.002    4.4017607  0.010147016    103.09182    136.01354 
   85900    902.93706   0.28157887    25.332522   0.49780722        0.002    4.9511564 0.0098276797    105.93108    135.05343 
   86000    903.95515   0.28038257    25.361968   0.49780722        0.002     4.118263 0.0093478457    103.45917    134.09702 
   86100    904.90217   0.28119596    25.388617   0.49780722        0.002    4.2959838 0.0092476045    104.51516    133.13902 
   86200    905.88055   0.28207375    25.416308   0.49780722        0.002    4.1041775   0.01002251    103.86815    132.18197 
   86300    906.91625   0.28154431    25.445376   0.49780722        0.002    4.0464646  0.010879373    104.82972    131.22351 
   86400    907.93444   0.28139087    25.473892   0.49780722        0.002    3.9969122  0.010194076    102.33916    130.26871 
   86500    908.95779   0.28138703    25.501515   0.49780722        0.002    3.9900614  0.011031975    104.26802    129.31105 
   86600    909.94034   0.28065543    25.528216   0.49780722        0.002    5.2462078 0.0081228844    103.55547    128.35439 
   86700    910.94367   0.28052413    25.556829   0.49780722        0.002    4.4154655 0.0091153555    105.95329    127.39437 
   86800    911.89873   0.28089997    25.583793   0.49780722        0.002    5.0622226 0.0097593257    104.47847    126.43641 
   86900    912.90017   0.28149409    25.611274   0.49780722        0.002    4.2511623  0.009943847    104.99604    125.47774 
   87000    913.92201   0.28109507    25.640151   0.49780722        0.002    4.2504984 0.0097454773    103.15541    124.52162 
   87100    914.94452   0.28122142    25.668788   0.49780722        0.002    3.9979457 0.0087940352    103.47995    123.56502 
   87200    915.97116   0.28014067    25.697029   0.49780722        0.002    3.7905748  0.011308659    103.69679     122.6081 
   87300      916.966   0.28086993    25.724301   0.49780722        0.002    4.2724033  0.010425429    105.92153    121.64822 
   87400     917.9857   0.28062615    25.753449   0.49780722        0.002    4.1750313 0.0088554452     104.3347    120.69045 
   87500     918.9481   0.28054098    25.779908   0.49780722        0.002    4.1288556 0.0093568113    102.69532    119.73486 
   87600    919.88114   0.28117068    25.806295   0.49780722        0.002    3.7794037  0.010402529    104.55682    118.77677 
   87700    920.89897   0.28067698    25.835367   0.49780722        0.002     4.684899 0.0092724143    105.16086    117.81792 
   87800     921.9244   0.28079531    25.864647   0.49780722        0.002    4.1547029  0.010595695    103.19896     116.8616 
   87900    922.92784   0.28044486    25.892133   0.49780722        0.002    4.0729411 0.0095957316    103.89795    115.90435 
   88000    923.95776   0.28059559    25.921352   0.49780722        0.002    4.6072047 0.0093649977    104.84345    114.94591 
   88100    924.94971   0.28069178    25.949674   0.49780722        0.002    5.5289858 0.0088444334     104.4716    113.98793 
   88200    925.97821   0.28075452    25.978291   0.49780722        0.002    4.3220717 0.0099155636    104.43558       113.03 
   88300    927.02044   0.27984446    26.007582   0.49780722        0.002    4.4298677  0.010354226    104.36627    112.07216 
   88400    928.03132   0.28072099    26.036464   0.49780722        0.002     4.692951  0.010228137    106.00979    111.11236 
   88500    929.05502   0.27916331    26.067344   0.49780722        0.002    4.0310752  0.010131513     105.9987    110.15262 
   88600    930.09277    0.2800651     26.09874   0.49780722        0.002     4.106254  0.010710235    104.09249    109.19514 
   88700    931.09247   0.28046308    26.128082   0.49780722        0.002    5.0342151 0.0098591932    103.61052    108.23821 
   88800    932.08065   0.27959282    26.156423   0.49780722        0.002     5.026471 0.0098360325    102.04831    107.28314 
   88900     933.0619   0.28014031    26.184521   0.49780722        0.002    4.4502621 0.0099220391     105.0696    106.32449 
   89000    934.03532   0.28139898    26.212929   0.49780722        0.002    4.3146611  0.008592142     103.8839    105.36719 
   89100    934.93932   0.27986303    26.238857   0.49780722        0.002    3.8057481 0.0096581712    104.18392    104.40955 
   89200    935.87526   0.27939443    26.265382   0.49780722        0.002    4.4019172 0.0096676698    103.18556    103.45302 
   89300    936.87033   0.28020545    26.293306   0.49780722        0.002    4.2140537 0.0097417425    103.89687    102.49568 
   89400    937.87028   0.28026512    26.321585   0.49780722        0.002    4.0452907    0.0104765    105.00816    101.53711 
   89500    938.88241   0.28110528    26.349426   0.49780722        0.002     4.411762 0.0096996449    104.08707    100.57954 
   89600    939.86736   0.28173305    26.376424   0.49780722        0.002    4.0585873 0.0087970262    104.07279    99.621989 
   89700    940.85497   0.28171096      26.4037   0.49780722        0.002     4.349893  0.010151694    104.03241    98.664468 
   89800    941.87122   0.28159749    26.432648   0.49780722        0.002    3.9808608  0.010320643    105.86905    97.705045 
   89900    942.86378   0.28095727    26.461284   0.49780722        0.002    4.2333519  0.010749674    102.35342      96.7493 
   90000    943.91719   0.28196363    26.491203   0.49780722        0.002    4.4328764  0.010149444    102.76827    95.793069 
   90100    944.89769   0.28115773    26.518371   0.49780722        0.002    4.4547663  0.010684585    102.48788    94.837094 
   90200    945.90953   0.27983306    26.547216   0.49780722        0.002    3.8879231 0.0097568524    103.08303    93.880462 
   90300    946.91424   0.28030196    26.577097   0.49780722        0.002    4.2013646  0.010140952    105.16761    92.921736 
   90400    947.92337   0.28081228    26.606071   0.49780722        0.002    4.0156715 0.0094256219    104.76329    91.963416 
   90500    948.95461   0.28073186    26.634317   0.49780722        0.002    4.0052567  0.010541851    105.64705    91.004267 
   90600    949.94098   0.28133835    26.661579   0.49780722        0.002    4.0765964  0.010660898    104.69867    90.046035 
   90700    950.94215   0.28066094    26.689212   0.49780722        0.002    4.3007766  0.010578135    104.53482    89.087963 
   90800    951.93231   0.28194952    26.716433   0.49780722        0.002    4.0946072  0.010805874    105.47776    88.129028 
   90900    952.95549   0.28115574    26.744938   0.49780722        0.002    3.6960798  0.010710467    105.44721    87.170145 
   91000    953.94364   0.28116771    26.771694   0.49780722        0.002     4.638263  0.010266181    103.15031    86.213373 
   91100    954.96177   0.28089522    26.799566   0.49780722        0.002    4.2874216  0.010163642    103.85326    85.255932 
   91200    955.96421   0.28061711    26.826893   0.49780722        0.002     4.430308  0.010038401    103.61461    84.298693 
   91300    956.96679   0.28053651    26.853894   0.49780722        0.002    4.0677883  0.010344254    104.51984    83.340641 
   91400    957.98096   0.28001843      26.8799   0.49780722        0.002    4.2430835 0.0099577374    103.81553    82.383202 
   91500    958.97636    0.2811832     26.90593   0.49780722        0.002    4.0065151  0.010367063    102.35237    81.427029 
   91600    960.01954   0.28086867    26.932783   0.49780722        0.002    4.5153169 0.0099796637    103.39187    80.469911 
   91700    961.03726   0.28030744    26.958376   0.49780722        0.002    4.5006549 0.0096885266    103.59002    79.512603 
   91800    962.04424   0.28029335    26.984815   0.49780722        0.002    3.9737887   0.01017759    103.72744    78.555163 
   91900    963.08627   0.28061609    27.010727   0.49780722        0.002     4.729967  0.010450807    102.82153    77.598457 
   92000        964.1   0.28009655     27.03628   0.49780722        0.002    4.0597609  0.010372351    103.44087    76.641211 
   92100    965.10922   0.27990674    27.062606   0.49780722        0.002    4.0445754  0.010520398    103.31111    75.684048 
   92200    966.13091   0.28026538    27.088957   0.49780722        0.002    4.2060009 0.0095158149    104.27626    74.726103 
   92300    967.15999   0.28033956     27.11513   0.49780722        0.002    4.3012615 0.0098570799    104.77514    73.767776 
   92400    968.16762    0.2803437    27.141474   0.49780722        0.002    4.9327215  0.009985819    105.22449    72.809122 
   92500    969.17776    0.2803709    27.167583   0.49780722        0.002     4.053378  0.010857265    104.04896    71.851356 
   92600    970.21291    0.2805419    27.193646   0.49780722        0.002    3.9755374 0.0098874561    103.73973    70.893812 
   92700    971.23362    0.2813424     27.21945   0.49780722        0.002    4.2909737 0.0096149023    105.06452    69.935297 
   92800    972.24847   0.28066436    27.245218   0.49780722        0.002    4.5583853 0.0099867062    103.23668    68.978104 
   92900    973.26793   0.27994374    27.271283   0.49780722        0.002    4.5907014 0.0091866342    105.32114    68.019421 
   93000    974.25112    0.2804942    27.295841   0.49780722        0.002    3.9001641 0.0096251728     102.9318    67.062417 
   93100    975.29807   0.28038721    27.322008   0.49780722        0.002    3.9279585 0.0097358251    103.62618    66.104899 
   93200    976.29078   0.28031013    27.347575   0.49780722        0.002    4.0777203 0.0086318778    104.81148    65.146569 
   93300    977.30306   0.28081045    27.374045   0.49780722        0.002    4.3074804  0.010395604    104.58729    64.188395 
   93400    978.36526   0.28077237    27.401418   0.49780722        0.002    3.9724685  0.010107321     105.2439    63.229804 
   93500    979.37281   0.28155596    27.427225   0.49780722        0.002    4.2881922  0.010466134    104.13108    62.271936 
   93600    980.42166   0.28080297     27.45481   0.49780722        0.002    4.3418226  0.010224085    103.82383    61.314258 
   93700    981.44174   0.28079851    27.482243   0.49780722        0.002    4.5035443  0.010304112    105.26151    60.355683 
   93800    982.46674   0.28109287    27.510013   0.49780722        0.002    4.0543764 0.0098875885    102.64157     59.39873 
   93900     983.4565   0.28147025    27.536579   0.49780722        0.002    4.1428076  0.010536815    103.88909     58.44098 
   94000    984.48813   0.28185137    27.564632   0.49780722        0.002    4.1048014  0.011229286     104.1544    57.483063 
   94100    985.51986   0.28076486    27.592697   0.49780722        0.002    4.4565287  0.010817677    105.11856    56.524589 
   94200    986.52812   0.28114953    27.620625   0.49780722        0.002    4.0359814 0.0091608499    105.55381    55.565888 
   94300    987.51484   0.28105155    27.648265   0.49780722        0.002    4.8663883 0.0096546235    105.81541    54.607071 
   94400    988.52446   0.28189814    27.675524   0.49780722        0.002    4.3522035  0.010545622    104.35581    53.649066 
   94500    989.52542   0.28069914     27.70251   0.49780722        0.002    4.1984024  0.010241569    105.72513    52.690339 
   94600    990.55065    0.2811888    27.729511   0.49780722        0.002    3.9713347  0.011054972    103.61126     51.73274 
   94700    991.58155    0.2814139    27.756489   0.49780722        0.002    4.2354942  0.010893223    104.21605    50.774812 
   94800    992.60304    0.2803314    27.783049   0.49780722        0.002    4.5272561  0.010419161    104.92102    49.816527 
   94900    993.62316    0.2806443      27.8098   0.49780722        0.002    4.2227699  0.010378057    101.84324    48.859801 
   95000     994.6386   0.28164947    27.837361   0.49780722        0.002     3.822954  0.010815208    102.44927    47.902716 
   95100    995.68067   0.28117924    27.865745   0.49780722        0.002    3.8193669  0.010345735    101.99803    46.945814 
   95200     996.6927   0.28096365    27.894872   0.49780722        0.002    3.7242475  0.010231981    104.70831    45.987582 
   95300    997.71387   0.28062416    27.923505   0.49780722        0.002    4.0787729 0.0098183007     104.7467    45.029341 
   95400    998.71162   0.28123801    27.950714   0.49780722        0.002    4.2764937  0.010256365    104.33818    44.071286 
   95500    999.71412   0.28063772    27.979631   0.49780722        0.002    4.1581355  0.010077364    104.47998     43.11317 
   95600    1000.6908   0.28056203    28.007322   0.49780722        0.002    4.2362204   0.01053082    102.87653    42.155743 
   95700    1001.6992   0.28142171    28.034454   0.49780722        0.002    4.0603637  0.010374123    105.63957    41.197142 
   95800    1002.6969   0.28117084    28.062209   0.49780722        0.002    3.9856505 0.0096957244    104.80158    40.238899 
   95900    1003.6982   0.28077311    28.089452   0.49780722        0.002    4.2109399  0.010390973    103.98199    39.280985 
   96000    1004.6849   0.28174793    28.116373   0.49780722        0.002    3.8451083  0.010926419    103.15117    38.323386 
   96100    1005.6988   0.28189911    28.143788   0.49780722        0.002    4.4146674  0.010509964    104.48207    37.365262 
   96200    1006.7073   0.28051804    28.171396   0.49780722        0.002    4.3635487  0.010509054    105.02372    36.406944 
   96300    1007.7015   0.28172329    28.197012   0.49780722        0.002     4.339646 0.0092957325    104.27245    35.448903 
   96400    1008.6885   0.28123357    28.223209   0.49780722        0.002    4.7628897  0.010041647     104.7669    34.490691 
   96500     1009.703   0.28149578    28.250209   0.49780722        0.002    4.0481731  0.010333252    104.09629     33.53271 
   96600    1010.7159   0.28260022    28.276865   0.49780722        0.002    3.9920631  0.010802265    104.11169    32.574718 
   96700    1011.7383   0.28235541    28.303496   0.49780722        0.002    3.9415159  0.010146673    102.70473     31.61717 
   96800    1012.7219   0.28192457    28.328967   0.49780722        0.002    4.3117743  0.010103736    103.13413    30.659454 
   96900    1013.7294   0.27976303    28.356078   0.49780722        0.002    3.8494611  0.010174995    103.89352    29.701488 
   97000    1014.7376   0.28039939     28.38278   0.49780722        0.002     4.177052 0.0099651117    102.86308     28.74381 
   97100    1015.7398   0.28133538        28.41   0.49780722        0.002    4.2011191  0.010262341    104.90142    27.785538 
   97200    1016.7449   0.28175177    28.437943   0.49780722        0.002    3.8118304 0.0097828841    104.67818    26.827335 
   97300     1017.719   0.28131112    28.465718   0.49780722        0.002    4.0615264  0.009829682    104.58031    25.869163 
   97400    1018.7338   0.28198829    28.493026   0.49780722        0.002    4.0494776  0.010719455    102.98108    24.911391 
   97500     1019.765     0.281931    28.522191   0.49780722        0.002    4.1031857  0.010543046    104.83773    23.953151 
   97600     1020.763   0.28185497    28.549527   0.49780722        0.002    4.1939463  0.010931316    105.32347    22.994812 
   97700    1021.7986   0.28204323    28.577416   0.49780722        0.002    4.3917066  0.010210166    104.84269    22.036593 
   97800    1022.8088   0.28034546    28.606659   0.49780722        0.002    4.3554237  0.010559869    106.64562    21.078021 
   97900    1023.7927   0.28113668    28.634706   0.49780722        0.002    4.4534621 0.0095430979    107.00132    20.119424 
   98000    1024.7563   0.28077427    28.662258   0.49780722        0.002    4.0314492  0.010171958    104.01802    19.161424 
   98100    1025.7726   0.28141059    28.691367   0.49780722        0.002    4.2043198  0.010239315    104.46666    18.203337 
   98200    1026.8153   0.28194893    28.721642   0.49780722        0.002     4.134652  0.011449793    105.02414    17.245158 
   98300    1027.8759   0.28118252     28.75112   0.49780722        0.002    4.1025275  0.010509487    105.24622    16.286957 
   98400    1028.8795   0.28114301    28.777662   0.49780722        0.002    4.1029242  0.010492822    105.58381    15.328723 
   98500    1029.8719   0.28064852    28.805166   0.49780722        0.002    4.2277761  0.010448818    105.19528    14.370564 
   98600     1030.881   0.28212094    28.831813   0.49780722        0.002    3.9116327  0.010149821     105.4572    13.412388 
   98700     1031.925   0.28127764    28.860397   0.49780722        0.002    3.9811811  0.010138411    105.74792    12.454197 
   98800    1032.9386   0.28227554    28.887811   0.49780722        0.002    4.2966792  0.010193192     106.4626    11.495954 
   98900    1033.9612   0.28139683    28.915263   0.49780722        0.002    4.3288908  0.010645196    106.21688    10.537774 
   99000    1034.9508   0.28195156    28.941143   0.49780722        0.002    4.0783294  0.010745318    104.75635    9.5797608 
   99100    1035.9933   0.28179178    28.968111   0.49780722        0.002    4.0854024  0.010023983    105.07237    8.6217279 
   99200    1037.0249   0.28209526    28.994508   0.49780722        0.002     5.024366 0.0099376452    106.07154    7.6636355 
   99300    1038.0409   0.28181157    29.020643   0.49780722        0.002    4.3190903  0.010537639    105.43608     6.705614 
   99400      1039.07   0.28287264     29.04642   0.49780722        0.002    3.7664103 0.0092650172    104.78378    5.7476474 
   99500    1040.0719   0.28161641    29.072458   0.49780722        0.002    4.2600823 0.0096660844    106.42624    4.7896141 
   99600    1041.0624   0.28234795    29.097733   0.49780722        0.002    4.0933894 0.0096208604    105.47044     3.831652 
   99700    1042.0704   0.28120598    29.125136   0.49780722        0.002    4.0374896 0.0097010104     105.9157    2.8736976 
   99800    1043.0747   0.28177034     29.15121   0.49780722        0.002    4.2670194  0.010139896    104.39799    1.9157983 
   99900    1044.0952   0.28153964    29.178522   0.49780722        0.002    4.0609744  0.010181305    105.20588   0.95789177 
  100000    1045.1362   0.28135415    29.206258   0.49780722        0.002    3.8711897  0.010100842    103.32671            0 
Loop time of 957.902 on 4 procs for 100000 steps with 195811 atoms

Performance: 91106.713 tau/day, 104.395 timesteps/s
233.8% CPU use with 1 MPI tasks x 4 OpenMP threads

MPI task timing breakdown:
Section |  min time  |  avg time  |  max time  |%varavg| %total
---------------------------------------------------------------
Pair    | 379.81     | 379.81     | 379.81     |   0.0 | 39.65
Neigh   | 13.754     | 13.754     | 13.754     |   0.0 |  1.44
Comm    | 118.28     | 118.28     | 118.28     |   0.0 | 12.35
Output  | 3.2323     | 3.2323     | 3.2323     |   0.0 |  0.34
Modify  | 369.6      | 369.6      | 369.6      |   0.0 | 38.58
Other   |            | 73.23      |            |       |  7.64

Nlocal:    195811 ave 195811 max 195811 min
Histogram: 1 0 0 0 0 0 0 0 0 0
Nghost:    67463 ave 67463 max 67463 min
Histogram: 1 0 0 0 0 0 0 0 0 0
Neighs:    0 ave 0 max 0 min
Histogram: 1 0 0 0 0 0 0 0 0 0

Total # of neighbors = 0
Ave neighs/atom = 0
Neighbor list builds = 28192
Dangerous builds = 0

Please see the log.cite file for references relevant to this simulation

Total wall time: 0:16:38
