#package gpu 1
#suffix gpu
# variable rho equal 0.03

units lj
atom_style atomic

lattice fcc 0.975
Lattice spacing in x,y,z = 1.60085 1.60085 1.60085
region box block 0 60 0 30 0 30
create_box 2 box
Created orthogonal box = (0 0 0) to (96.0513 48.0256 48.0256)
  1 by 1 by 1 MPI processor grid
create_atoms 1 box
Created 216000 atoms
  Time spent = 0.0311379 secs
mass 1 4.0
mass 2 0.5


pair_style lj/cut 2.5
pair_coeff 1 1 1.0 1.0 2.5
pair_coeff 2 2 0.5 0.88 2.5
pair_coeff 1 2 0.2 1.0 2.5
#pair_coeff 1 2 1.5 0.8 2.5
pair_modify mix geometric
neigh_modify every 1 delay 0 check yes

variable R equal 12
region cylinder1 cylinder x $(0.5*ly) $(0.5*lz) $R EDGE EDGE units box
region cylinder1 cylinder x 24.012813670346833561 $(0.5*lz) $R EDGE EDGE units box
region cylinder1 cylinder x 24.012813670346833561 24.012813670346833561 $R EDGE EDGE units box
region cylinder1 cylinder x 24.012813670346833561 24.012813670346833561 12 EDGE EDGE units box

group cylinder1 region cylinder1
41820 atoms in group cylinder1
variable V equal PI*v_R*v_R*lx
# variable rho equal 0.1
variable natoms equal $V*${rho}
variable natoms equal 43452.5639148185*${rho}
variable natoms equal 43452.5639148185*0.008
variable natoms_in_cylinder equal count(cylinder1)
variable delete_fraction equal (${natoms_in_cylinder}-${natoms})/${natoms_in_cylinder}
variable delete_fraction equal (41820-${natoms})/${natoms_in_cylinder}
variable delete_fraction equal (41820-347.620511318548)/${natoms_in_cylinder}
variable delete_fraction equal (41820-347.620511318548)/41820
set group cylinder1 type 2
  41820 settings made for type
delete_atoms porosity cylinder1 ${delete_fraction} 12345
delete_atoms porosity cylinder1 0.991687697003382 12345
Deleted 41489 atoms, new total = 174511

region cylinder2 cylinder x $(0.5*ly) $(0.5*lz) $(v_R+6) EDGE EDGE units box
region cylinder2 cylinder x 24.012813670346833561 $(0.5*lz) $(v_R+6) EDGE EDGE units box
region cylinder2 cylinder x 24.012813670346833561 24.012813670346833561 $(v_R+6) EDGE EDGE units box
region cylinder2 cylinder x 24.012813670346833561 24.012813670346833561 18 EDGE EDGE units box
region cylinder3 cylinder x $(0.5*ly) $(0.5*lz) $(v_R+9) EDGE EDGE units box
region cylinder3 cylinder x 24.012813670346833561 $(0.5*lz) $(v_R+9) EDGE EDGE units box
region cylinder3 cylinder x 24.012813670346833561 24.012813670346833561 $(v_R+9) EDGE EDGE units box
region cylinder3 cylinder x 24.012813670346833561 24.012813670346833561 21 EDGE EDGE units box
group cylinder2 region cylinder2
54331 atoms in group cylinder2
group cylinder3 region cylinder3
88171 atoms in group cylinder3

group nve region cylinder3
88171 atoms in group nve
group langevin subtract cylinder3 cylinder2
33840 atoms in group langevin
group frozen subtract all cylinder3
86340 atoms in group frozen

region force cylinder x $(0.5*ly) $(0.5*lz) $(v_R-1) EDGE EDGE units box
region force cylinder x 24.012813670346833561 $(0.5*lz) $(v_R-1) EDGE EDGE units box
region force cylinder x 24.012813670346833561 24.012813670346833561 $(v_R-1) EDGE EDGE units box
region force cylinder x 24.012813670346833561 24.012813670346833561 11 EDGE EDGE units box
group gas type 2
331 atoms in group gas

fix nve nve nve
fix langevin langevin langevin 0.50 0.50 1.0 12345 zero yes

variable gascount equal count(gas)

variable dP equal 0.001
variable force equal v_dP/v_rho

velocity all create 0.1 87287
velocity frozen set 0 0 0

compute chunk all chunk/atom bin/cylinder x lower $(lx) $(0.5*ly) $(0.5*lz) 0 $(v_R+3) 80 units box
compute chunk all chunk/atom bin/cylinder x lower 96.051254681387334244 $(0.5*ly) $(0.5*lz) 0 $(v_R+3) 80 units box
compute chunk all chunk/atom bin/cylinder x lower 96.051254681387334244 24.012813670346833561 $(0.5*lz) 0 $(v_R+3) 80 units box
compute chunk all chunk/atom bin/cylinder x lower 96.051254681387334244 24.012813670346833561 24.012813670346833561 0 $(v_R+3) 80 units box
compute chunk all chunk/atom bin/cylinder x lower 96.051254681387334244 24.012813670346833561 24.012813670346833561 0 15 80 units box

compute displacement nve displace/atom
compute mean_displacement nve reduce ave c_displacement[4]

compute vmax all reduce max vx
variable volume equal count(gas)/v_V

thermo_style custom step time temp c_mean_displacement v_volume v_force c_vmax dt spcpu cpuremain
thermo 100

compute keAtom all ke/atom
dump dump all custom 1000 trajectory_l.bin id type x y z c_keAtom

fix flow gas addforce v_force 0.0 0.0
run 5000
No /omp style for force computation currently active
Per MPI rank memory allocation (min/avg/max) = 85.71 | 85.71 | 85.71 Mbytes
Step Time Temp c_mean_displacement v_volume v_force c_vmax Dt S/CPU CPULeft 
       0            0  0.050540859            0 0.0076175022        0.125   0.77453183        0.005            0            0 
     100          0.5  0.065012437  0.054464521 0.0076175022        0.125   0.92606613        0.005    140.69072    34.828227 
     200            1   0.09472177  0.087512462 0.0076175022        0.125    1.7133885        0.005    141.73235    33.992043 
     300          1.5   0.11006767   0.12538301 0.0076175022        0.125    1.6719155        0.005    146.21106    32.904372 
     400            2   0.12227976   0.15783918 0.0076175022        0.125    1.7484484        0.005    149.77705    31.831275 
     500          2.5   0.12956374   0.18691159 0.0076175022        0.125    1.8202137        0.005    149.86235    30.916944 
     600            3    0.1344207   0.20351186 0.0076175022        0.125    1.7307405        0.005    150.27245     30.07161 
     700          3.5   0.14081909   0.20321304 0.0076175022        0.125     1.838131        0.005     151.2358    29.251629 
     800            4   0.14829621   0.19033365 0.0076175022        0.125    2.0771645        0.005    150.98216     28.47717 
     900          4.5   0.15516832   0.16922536 0.0076175022        0.125    2.2353031        0.005    149.70418    27.753393 
    1000            5   0.15983735   0.14438535 0.0076175022        0.125    2.3484334        0.005    148.27511    27.066516 
    1100          5.5   0.16328657   0.12368494 0.0076175022        0.125    2.3518655        0.005    148.20679    26.383015 
    1200            6   0.16556344   0.11243972 0.0076175022        0.125     2.443652        0.005       148.69    25.694023 
    1300          6.5   0.16868936   0.11061148 0.0076175022        0.125    2.6593449        0.005    149.03018    25.003197 
    1400            7   0.17133588   0.11401299 0.0076175022        0.125    2.7170526        0.005    146.49121    24.345108 
    1500          7.5   0.17553321    0.1183701 0.0076175022        0.125    3.0518565        0.005     143.4675    23.717316 
    1600            8   0.18039873   0.12147571 0.0076175022        0.125    2.7936774        0.005    145.63672    23.058806 
    1700          8.5   0.18511551   0.12531492 0.0076175022        0.125    3.0989218        0.005    145.11596    22.401774 
    1800            9   0.18985274   0.13048922 0.0076175022        0.125    3.3457514        0.005    145.48376     21.73808 
    1900          9.5   0.19419977    0.1384524 0.0076175022        0.125    3.2778585        0.005    145.53924    21.071467 
    2000           10   0.19874223    0.1489485 0.0076175022        0.125    4.1417832        0.005    144.75002    20.408424 
    2100         10.5   0.20029695   0.16198701 0.0076175022        0.125    3.9792041        0.005    142.39542    19.758508 
    2200           11   0.20371921   0.17354015 0.0076175022        0.125    4.0540177        0.005     143.9087    19.094436 
    2300         11.5   0.20473677    0.1824815 0.0076175022        0.125    4.1181116        0.005    144.65936     18.42345 
    2400           12   0.20696977   0.18686844 0.0076175022        0.125    4.2219197        0.005    144.20175     17.75315 
    2500         12.5   0.20862757   0.18772804 0.0076175022        0.125    4.3466642        0.005    144.32784     17.08039 
    2600           13   0.21068438   0.18518944 0.0076175022        0.125    4.4739969        0.005     142.7682     16.41307 
    2700         13.5   0.21217187   0.18109201 0.0076175022        0.125     4.603916        0.005    142.04647    15.746329 
    2800           14    0.2138433   0.17789429 0.0076175022        0.125    4.7262919        0.005    143.41938    15.071631 
    2900         14.5   0.21450219   0.17513753 0.0076175022        0.125    4.8450904        0.005     142.3226    14.399269 
    3000           15   0.21524965   0.17473513 0.0076175022        0.125    4.9700904        0.005    141.40414    13.727933 
    3100         15.5   0.21687932   0.17708637 0.0076175022        0.125    5.0950904        0.005    139.17845    13.061213 
    3200           16   0.21884119   0.18196469 0.0076175022        0.125    5.2200904        0.005    141.52919    12.384545 
    3300         16.5   0.22038839   0.18817317 0.0076175022        0.125    5.3034988        0.005     140.4181    11.708945 
    3400           17   0.22265677   0.19444113 0.0076175022        0.125    5.3316301        0.005    137.43435    11.038469 
    3500         17.5   0.22491376   0.20069857 0.0076175022        0.125    5.4555894        0.005    137.49882    10.364583 
    3600           18   0.22742572   0.20691634 0.0076175022        0.125    5.5805894        0.005    137.29476    9.6881506 
    3700         18.5   0.22893394   0.21329898 0.0076175022        0.125    5.6947407        0.005    137.31112    9.0088806 
    3800           19   0.23084415    0.2207252 0.0076175022        0.125    5.8858773        0.005    135.86146    8.3294855 
    3900         19.5   0.23186757   0.22879596 0.0076175022        0.125    5.9476996        0.005    137.40567    7.6448522 
    4000           20   0.23290705   0.23669661 0.0076175022        0.125     5.927422        0.005    134.96185    6.9613565 
    4100         20.5   0.23419266   0.24441844 0.0076175022        0.125    6.2707135        0.005    137.77465    6.2717376 
    4200           21   0.23520796   0.25098355 0.0076175022        0.125    6.3978152        0.005    137.65858    5.5805112 
    4300         21.5   0.23500393    0.2571084 0.0076175022        0.125    6.4939557        0.005    137.81508     4.887513 
    4400           22   0.23610958    0.2614881 0.0076175022        0.125    6.6151717        0.005     138.1015     4.192827 
    4500         22.5   0.23814281   0.26487526 0.0076175022        0.125    6.7401717        0.005    135.03442    3.4986612 
    4600           23   0.23721633   0.26787337 0.0076175022        0.125    6.8651717        0.005    133.95453    2.8029976 
    4700         23.5    0.2390988   0.27106869 0.0076175022        0.125    6.9901717        0.005    133.39503    2.1053697 
    4800           24   0.23986375   0.27419128 0.0076175022        0.125    7.1151717        0.005    133.56431    1.4055345 
    4900         24.5   0.24095186   0.27906145 0.0076175022        0.125    7.2401717        0.005    133.48907   0.70371333 
    5000           25   0.24058208   0.28550126 0.0076175022        0.125    7.3651717        0.005    128.36773            0 
Loop time of 35.261 on 4 procs for 5000 steps with 174511 atoms

Performance: 61257.513 tau/day, 141.800 timesteps/s
226.9% CPU use with 1 MPI tasks x 4 OpenMP threads

MPI task timing breakdown:
Section |  min time  |  avg time  |  max time  |%varavg| %total
---------------------------------------------------------------
Pair    | 15.424     | 15.424     | 15.424     |   0.0 | 43.74
Neigh   | 0.29911    | 0.29911    | 0.29911    |   0.0 |  0.85
Comm    | 3.9935     | 3.9935     | 3.9935     |   0.0 | 11.33
Output  | 0.12963    | 0.12963    | 0.12963    |   0.0 |  0.37
Modify  | 12.317     | 12.317     | 12.317     |   0.0 | 34.93
Other   |            | 3.097      |            |       |  8.78

Nlocal:    174511 ave 174511 max 174511 min
Histogram: 1 0 0 0 0 0 0 0 0 0
Nghost:    66631 ave 66631 max 66631 min
Histogram: 1 0 0 0 0 0 0 0 0 0
Neighs:    0 ave 0 max 0 min
Histogram: 1 0 0 0 0 0 0 0 0 0

Total # of neighbors = 0
Ave neighs/atom = 0
Neighbor list builds = 723
Dangerous builds = 0

reset_timestep 0
fix vx all ave/chunk 10 100000 1000000 chunk vx ave running file velocity_l.txt

fix dt all dt/reset 10 NULL NULL 0.05 units box

run 1000000
No /omp style for force computation currently active
Per MPI rank memory allocation (min/avg/max) = 95.08 | 95.08 | 95.08 Mbytes
Step Time Temp c_mean_displacement v_volume v_force c_vmax Dt S/CPU CPULeft 
       0           25   0.24058208   0.28550126 0.0076175022        0.125    7.3651717 0.0061784665            0            0 
     100    25.617538   0.24112628   0.29386325 0.0076175022        0.125    7.5345241 0.0061917741    115.05981    8690.2725 
     200    26.232099   0.24268628   0.30233884 0.0076175022        0.125    7.7831612 0.0060147832    116.61661    8631.3994 
     300    26.833654   0.24370096   0.31028604 0.0076175022        0.125    7.6843852 0.0064938572    116.63181    8610.8299 
     400    27.480974   0.24563688   0.31768742 0.0076175022        0.125    7.7505577 0.0064110266    116.90436    8595.1207 
     500    28.105492   0.24585071    0.3252813 0.0076175022        0.125    8.2119593  0.006079668    116.91925    8585.1337 
     600    28.714571   0.24739278   0.33316851 0.0076175022        0.125    8.3608375 0.0059792144    120.74891    8533.0104 
     700    29.314831   0.24871718   0.34119081 0.0076175022        0.125    8.3237027 0.0059853556    120.40574    8498.9111 
     800    29.903718   0.24800838   0.34976959 0.0076175022        0.125    8.5930383 0.0058014509    119.30227    8482.7224 
     900    30.477693   0.24844768   0.35658679 0.0076175022        0.125    8.7896845 0.0056877179    119.21296    8470.6431 
    1000     31.03307   0.24854086   0.36263237 0.0076175022        0.125    8.8214401 0.0054787234    116.28611    8481.9047 
    1100    31.579465   0.24939971   0.36833209 0.0076175022        0.125    8.9859806 0.0054600111    121.32287    8458.5419 
    1200    32.122491   0.24970729   0.37373925 0.0076175022        0.125    9.0639384 0.0053052289      116.591    8466.7778 
    1300    32.656594   0.25011486   0.37855348 0.0076175022        0.125    9.1911325 0.0053980861    117.01355    8471.2371 
    1400    33.186517   0.25094375   0.38387397 0.0076175022        0.125     9.383635 0.0052904024    117.20277     8473.952 
    1500    33.707687   0.24979485   0.39074853 0.0076175022        0.125     9.633933 0.0051671976    117.07342    8476.8191 
    1600    34.222273   0.25156926   0.39689956 0.0076175022        0.125    9.7747879 0.0051097027    116.30178    8482.7565 
    1700    34.734578   0.25223323   0.40279615 0.0076175022        0.125     9.605289  0.005159815    117.96751    8480.7658 
    1800    35.247784   0.25172059   0.40955117 0.0076175022        0.125    9.7416161 0.0050851515    116.49948    8484.8254 
    1900    35.748562   0.25222244   0.41537614 0.0076175022        0.125    9.9962646 0.0049986261    118.84938    8479.4516 
    2000    36.247108   0.25445041   0.42151374 0.0076175022        0.125    10.085655 0.0049534556    116.29949    8483.7365 
    2100    36.740288   0.25370375    0.4280936 0.0076175022        0.125    10.107624  0.004945677     116.9332    8485.3172 
    2200    37.232188   0.25510336   0.43430626 0.0076175022        0.125    10.229962 0.0048865215    116.05856    8489.5995 
    2300    37.718472    0.2543884   0.44110699 0.0076175022        0.125    10.341234 0.0048342853    115.36514     8495.681 
    2400    38.199336   0.25535514   0.44626952 0.0076175022        0.125    10.464198 0.0047775228     116.6193    8497.3087 
    2500     38.67466   0.25581934   0.45242414 0.0076175022        0.125    10.583029 0.0047238935    116.71185    8498.4662 
    2600    39.146015   0.25504954   0.45806293 0.0076175022        0.125     10.42751 0.0047615108    116.85697    8499.0607 
    2700    39.617039   0.25614141   0.46315696 0.0076175022        0.125     10.12801 0.0046604694    118.30764    8495.6715 
    2800    40.080962   0.25522853   0.46837354 0.0076175022        0.125    10.243972 0.0046134698    113.49761    8505.2225 
    2900    40.540754   0.25551041   0.47315397 0.0076175022        0.125    10.357734 0.0045788755     114.2959    8511.9377 
    3000    41.002407   0.25670742   0.47802552 0.0076175022        0.125    10.474607  0.004743394    113.58345    8519.9709 
    3100    41.473129   0.25597293   0.48308105 0.0076175022        0.125    10.608379 0.0046495386    114.55775    8525.0209 
    3200    41.933694   0.25635591   0.48640186 0.0076175022        0.125    10.397543 0.0045588028    119.44422    8518.5768 
    3300    42.387916   0.25665519   0.49030587 0.0076175022        0.125    10.510841 0.0045187423    114.76485    8522.7827 
    3400    42.836815   0.25628145   0.49475097 0.0076175022        0.125    10.843314 0.0043956555    115.51145    8525.0386 
    3500     43.27803   0.25635654    0.4988783 0.0076175022        0.125    10.749999  0.004351446    118.02487    8521.8679 
    3600    43.711464   0.25627161   0.50269486 0.0076175022        0.125    10.857965  0.004313489    115.59225    8523.7611 
    3700    44.140794   0.25676618    0.5068233 0.0076175022        0.125    11.043297 0.0042551761    116.15778    8524.3708 
    3800    44.564943   0.25739782   0.51016868 0.0076175022        0.125    11.165687 0.0042194555    115.70069     8525.795 
    3900    44.984683    0.2571098   0.51353102 0.0076175022        0.125    11.139381 0.0041978663    119.06804    8520.8591 
    4000    45.402925   0.25781877   0.51680783 0.0076175022        0.125    11.243369  0.004163813    113.76201    8525.8815 
    4100    45.817772   0.25844047   0.52029916 0.0076175022        0.125    11.347519 0.0041284706    116.75207    8525.1476 
    4200    46.229539   0.25845815   0.52441845 0.0076175022        0.125    11.438034 0.0040990371    116.66526    8524.5594 
    4300    46.672831   0.25864536   0.52902476 0.0076175022        0.125    10.908626  0.004532741    117.90785    8521.8668 
    4400    47.125096   0.25747959   0.53375285 0.0076175022        0.125    11.021693 0.0045343273    117.07698      8520.62 
    4500    47.576451   0.25813351   0.53773021 0.0076175022        0.125    11.134531 0.0044884193    115.56846     8521.857 
    4600    48.023278   0.25863678   0.54113404 0.0076175022        0.125    11.246238 0.0044438781    114.54439    8524.6766 
    4700     48.46571   0.25805059   0.54473769 0.0076175022        0.125    11.356846 0.0044006372    116.64622    8524.0078 
    4800    48.903874   0.25826419     0.547817 0.0076175022        0.125    11.465686  0.004358893    114.40982    8526.8056 
    4900    49.337963   0.25800906   0.55118397 0.0076175022        0.125    11.572534 0.0043186415    116.51071    8526.2526 
    5000    49.768031   0.25888095   0.55458188 0.0076175022        0.125    11.680051 0.0042789227     115.5511    8527.1062 
    5100    50.192951   0.25811062   0.55825078 0.0076175022        0.125    11.836611   0.00422374    116.60694    8526.3637 
    5200    50.615244   0.25799703    0.5618148 0.0076175022        0.125    11.888139 0.0042051323    118.42599    8523.0965 
    5300    51.033868   0.25772007   0.56484958 0.0076175022        0.125    12.002422 0.0041650324    115.13681    8524.4482 
    5400    51.448885   0.25868493   0.56783113 0.0076175022        0.125    12.101558 0.0041308737    116.53029    8523.8047 
    5500    51.860399    0.2587695   0.57104372 0.0076175022        0.125    12.204436 0.0040960658    114.25464    8526.2439 
    5600    52.268471   0.25838915   0.57436852 0.0076175022        0.125    12.306454 0.0040621234    115.66295    8526.6725 
    5700    52.673187   0.25749346    0.5773933 0.0076175022        0.125    12.407633 0.0040290112    115.70124    8527.0057 
    5800    53.075443   0.25718439   0.58070101 0.0076175022        0.125    12.125327  0.004079713    116.64434    8526.0998 
    5900    53.482432   0.25803266   0.58437953 0.0076175022        0.125     12.20058 0.0040515609    114.02898    8528.5086 
    6000    53.886152   0.25654401   0.58813748 0.0076175022        0.125    12.305964 0.0040174628    114.04721    8530.7847 
    6100    54.283656   0.25824741   0.59096827 0.0076175022        0.125    12.642701 0.0039287839    115.06246    8531.6966 
    6200    54.675158   0.25876074   0.59416548 0.0076175022        0.125    12.741601 0.0039037625    116.34456    8531.0163 
    6300    55.064212   0.25905939   0.59703836 0.0076175022        0.125    12.838864 0.0038744918    116.45361    8530.2031 
    6400    55.450368   0.25854022   0.60019156 0.0076175022        0.125    12.935403 0.0038458679    117.58592    8528.1048 
    6500     55.83369   0.25940093    0.6030616 0.0076175022        0.125    13.031535 0.0038177752    116.87527    8526.8351 
    6600    56.213777    0.2578799   0.60618763 0.0076175022        0.125     13.17477 0.0037783836      114.972      8527.71 
    6700    56.590465   0.25757887   0.60908241 0.0076175022        0.125    13.267157 0.0037526396    116.60228    8526.7301 
    6800    56.964552   0.25807213    0.6113805 0.0076175022        0.125    13.360679  0.003726593    117.75944    8524.5227 
    6900    57.336059   0.25789223   0.61383027 0.0076175022        0.125    13.454119 0.0037009085    113.07983    8527.4126 
    7000    57.705058    0.2570494   0.61702271 0.0076175022        0.125     13.54327  0.003676659     114.9971    8528.1032 
    7100    58.071617   0.25767256   0.61997839 0.0076175022        0.125     13.63491 0.0036521495    115.71477    8527.9955 
    7200    58.435747   0.25862471   0.62243388 0.0076175022        0.125    13.725943 0.0036281225     116.1737    8527.3962 
    7300    58.797495   0.25844404   0.62500605 0.0076175022        0.125     13.81638 0.0036045625    116.56682     8526.395 
    7400    59.156908    0.2579903   0.62795878 0.0076175022        0.125    13.906729 0.0035813218    116.12002    8525.8403 
    7500    59.544629   0.25890762   0.63074231 0.0076175022        0.125    10.977235  0.004313179    116.82078    8524.5939 
    7600    59.974481   0.25834182   0.63400451 0.0076175022        0.125    11.075499 0.0042773577    116.44262    8523.7207 
    7700    60.396292   0.25879428   0.63740007 0.0076175022        0.125    10.877518 0.0041639443    115.25267    8523.9906 
    7800    60.828679    0.2590096   0.64095099 0.0076175022        0.125    10.983183 0.0043787545    116.17789    8523.3524 
    7900    61.264016   0.25931225   0.64373979 0.0076175022        0.125    11.092629 0.0043361753    116.17155    8522.7144 
    8000    61.697948   0.25909512   0.64623481 0.0076175022        0.125    11.157507 0.0043371118    117.07806    8521.2444 
    8100    62.129896   0.25841825    0.6497872 0.0076175022        0.125    11.265494 0.0042981343    113.97906    8522.6334 
    8200    62.557985   0.25922071   0.65272066 0.0076175022        0.125     11.37124 0.0042601835      113.713    8524.2155 
    8300    62.982331   0.25807206   0.65579496 0.0076175022        0.125    11.477327  0.004223188    115.71716    8523.9184 
    8400    63.403019   0.25921644   0.65871431 0.0076175022        0.125    11.582621 0.0041870402    116.22325    8523.1636 
    8500    63.819617   0.25888246   0.66206101 0.0076175022        0.125    11.698044  0.004125403    116.59456    8522.0867 
    8600    64.242858   0.25852161    0.6653263 0.0076175022        0.125    10.873314 0.0042913518    119.00301    8519.0139 
    8700    64.670507   0.25842649   0.66825227 0.0076175022        0.125    10.979068 0.0042567578    114.16396    8520.0508 
    8800    65.094572   0.25896205   0.67158392 0.0076175022        0.125    11.085084  0.004221125    115.51133    8519.8934 
    8900    65.515112   0.25862562    0.6749472 0.0076175022        0.125    11.190219 0.0041863319    116.18587    8519.1604 
    9000     65.93221   0.25939578   0.67778569 0.0076175022        0.125    11.294494 0.0041523472    113.17787    8520.9434 
    9100    66.345944   0.25900638   0.68103153 0.0076175022        0.125    11.397965 0.0041191162    113.53029    8522.3691 
    9200    66.760484   0.25876726   0.68446213 0.0076175022        0.125    10.339323 0.0041586595    115.39803    8522.2093 
    9300    67.174966   0.25861121   0.68727307 0.0076175022        0.125    10.443437 0.0041279878     116.1544    8521.4332 
    9400    67.586438   0.25895004   0.68976169 0.0076175022        0.125    10.546528 0.0040983112    115.65268    8521.0489 
    9500    67.994938   0.25815177   0.69283818 0.0076175022        0.125    10.648653 0.0040688321    115.30368    8520.9272 
    9600    68.400218   0.25842144   0.69574414 0.0076175022        0.125    10.755271 0.0040072266    114.76089    8521.2134 
    9700    68.854931   0.25824606   0.69938702 0.0076175022        0.125    9.0676078 0.0046516469    117.58355    8519.3401 
    9800    69.318761   0.25817357    0.7024726 0.0076175022        0.125    9.1485884 0.0046220146    116.13095    8518.5625 
    9900    69.779568   0.25963382   0.70502672 0.0076175022        0.125    9.4805598 0.0045807059    114.15172    8519.2764 
   10000    70.238203   0.25941353    0.7082962 0.0076175022        0.125    9.4853354 0.0045656651    115.95441    8518.6102 
   10100    70.691211   0.25864453   0.71179956 0.0076175022        0.125     10.44088  0.004511882    113.42833    8519.8224 
   10200    71.140461   0.25912506   0.71531595 0.0076175022        0.125    9.7148316 0.0048571475    113.07611    8521.2601 
   10300    71.626945    0.2585393   0.71907745 0.0076175022        0.125    9.7208171 0.0048728468     116.4779     8520.171 
   10400    72.112387   0.25838899   0.72200783 0.0076175022        0.125    8.7213148 0.0048320296    111.80741    8522.4988 
   10500    72.593782   0.25749056   0.72544169 0.0076175022        0.125    8.8684159 0.0047919536     116.4855    8521.3802 
   10600    73.071188    0.2589167   0.72783194 0.0076175022        0.125    8.9887332 0.0047522374    116.74645    8520.0874 
   10700    73.544144   0.25881641   0.73100524 0.0076175022        0.125    10.063871 0.0046559919    115.59814    8519.5897 
   10800    74.042152   0.25924595   0.73454298 0.0076175022        0.125    8.5333667 0.0051199294    117.12658     8518.051 
   10900    74.564921   0.25847406   0.73881223 0.0076175022        0.125    8.6748154 0.0052023329    118.60133    8515.5615 
   11000    75.084404   0.25917673   0.74218435 0.0076175022        0.125    8.8046859 0.0051996342    117.49195    8513.8179 
   11100     75.60407   0.25894764   0.74587129 0.0076175022        0.125    8.9346024 0.0051859428    116.20988    8512.9269 
   11200    76.142957   0.25920261   0.74979978 0.0076175022        0.125    9.0693243  0.005448743     114.8983    8512.9035 
   11300    76.684281   0.25797785   0.75366723 0.0076175022        0.125    9.2046552 0.0053704523    113.47387    8513.8212 
   11400     77.21699    0.2589045   0.75722015 0.0076175022        0.125    9.4845641 0.0052056463    116.23407    8512.8925 
   11500    77.736828   0.25923798   0.76114475 0.0076175022        0.125    9.5262401 0.0051698298    116.96552    8511.5024 
   11600    78.250784    0.2591724   0.76452752 0.0076175022        0.125    9.6547291 0.0051030391    115.86261     8510.815 
   11700    78.758168   0.25864727   0.76814568 0.0076175022        0.125    9.7854337 0.0050364525    113.29738    8511.7755 
   11800    79.258123   0.25881145   0.77127237 0.0076175022        0.125    9.8808148 0.0049708783     114.1442    8512.1563 
   11900    79.752561   0.25740159   0.77512134 0.0076175022        0.125    10.006649 0.0049103892    114.29982    8512.4168 
   12000    80.240406   0.25841177   0.77852633 0.0076175022        0.125    10.110446 0.0048536992    116.38191    8511.3698 
   12100    80.720724   0.25792799   0.78246528 0.0076175022        0.125    10.128119  0.004837418    116.14954    8510.4662 
   12200    81.207134   0.25778899   0.78626363 0.0076175022        0.125    9.5996351 0.0048893011    116.58954    8509.3003 
   12300    81.693224   0.25843375   0.79015819 0.0076175022        0.125    9.7062664 0.0044745284    115.42464    8508.8344 
   12400    82.140069   0.25830121   0.79373022 0.0076175022        0.125    9.8168981 0.0044590702    117.17998    8507.3285 
   12500    82.585172   0.25740242   0.79733411 0.0076175022        0.125    9.9232588 0.0044407871    115.49892    8506.8143 
   12600    83.028464   0.25879961   0.80047888 0.0076175022        0.125    10.034082 0.0044208085    116.18207    8505.8955 
   12700    83.505253   0.25969445    0.8041034 0.0076175022        0.125    10.154297   0.00490625     118.9649    8503.4124 
   12800    83.993375    0.2597403   0.80708946 0.0076175022        0.125    10.270306 0.0048504717    116.86872    8502.1178 
   12900     84.47589   0.25916539   0.81068911 0.0076175022        0.125    10.390934 0.0047945692    116.48997    8501.0429 
   13000    84.952743   0.25807492   0.81432899 0.0076175022        0.125    10.432948 0.0047657287    116.24595    8500.1081 
   13100    85.427803   0.25815913   0.81709885 0.0076175022        0.125    10.526276 0.0047194612    114.62462    8500.0911 
   13200    85.895804   0.25816798   0.82015842 0.0076175022        0.125    10.657435 0.0046316342     117.3662    8498.5377 
   13300    86.358181   0.26020403   0.82322319 0.0076175022        0.125    9.9922344 0.0049229441    116.03823    8497.7183 
   13400    86.846112   0.25763915   0.82748648 0.0076175022        0.125    9.4663411 0.0048675804    117.91255    8495.8896 
   13500    87.330494   0.25843629   0.83100613 0.0076175022        0.125    9.6041165 0.0048106541    116.02867    8495.0817 
   13600    87.808953   0.25912298   0.83423845 0.0076175022        0.125    9.7548531  0.004758863    116.80812    8493.8557 
   13700    88.282608   0.25743783   0.83788357 0.0076175022        0.125    9.8732668 0.0047095421    116.58571    8492.7529 
   13800    88.743083   0.25863892   0.84059821 0.0076175022        0.125    8.4036613 0.0044642268    116.78353    8491.5498 
   13900    89.188195   0.25845937   0.84349488 0.0076175022        0.125     8.573697 0.0044429226    115.81916    8490.8574 
   14000    89.674235   0.25805572   0.84720871 0.0076175022        0.125    8.3593082 0.0050489964     117.8456    8489.1169 
   14100     90.17859   0.25764328   0.85107033 0.0076175022        0.125    8.4785717 0.0050366693    112.66488    8490.1175 
   14200    90.681706   0.25790397   0.85487136 0.0076175022        0.125     8.606495 0.0050240573    116.28205    8489.1747 
   14300    91.183508   0.25871405   0.85860892 0.0076175022        0.125    8.7343414  0.005010518    116.76949    8487.9856 
   14400    91.705168    0.2578106   0.86299616 0.0076175022        0.125    8.8539651 0.0056074443     118.3792    8486.0041 
   14500    92.262027   0.25863338   0.86686755 0.0076175022        0.125     8.993402 0.0055216347    112.13757    8487.2339 
   14600    92.810487   0.25860984   0.87111258 0.0076175022        0.125    9.1296181 0.0054397605    112.90453    8488.0258 
   14700    93.350855   0.25870921   0.87491436 0.0076175022        0.125    9.2697729 0.0053562722    116.43328    8486.9957 
   14800    93.882095   0.25969083   0.87826642 0.0076175022        0.125    9.2321562 0.0053419263    114.82335    8486.7694 
   14900     94.42908   0.25860129   0.88263962 0.0076175022        0.125    8.8312292 0.0055360866     117.7364      8485.11 
   15000    94.979834   0.25920087   0.88634057 0.0076175022        0.125    8.9594756 0.0054598919    115.85121    8484.3689 
   15100    95.520283   0.25935171   0.89006674 0.0076175022        0.125    9.1893325 0.0052716736     117.0112     8483.068 
   15200    96.086339   0.25971218    0.8946101 0.0076175022        0.125    8.6117674 0.0056409607     118.5611    8481.0492 
   15300    96.654862   0.25938958   0.89893016 0.0076175022        0.125    8.7538982 0.0056615386    118.04995    8479.2808 
   15400     97.21701   0.25969576    0.9030225 0.0076175022        0.125    8.8789299 0.0055875236    117.19992    8477.9172 
   15500    97.771933    0.2594751   0.90697899 0.0076175022        0.125    9.0161416 0.0055032428    116.04051    8477.1016 
   15600    98.318583   0.25806502   0.91103779 0.0076175022        0.125    9.1539672  0.005421517    116.18748    8476.2167 
   15700     98.84812   0.25860974   0.91537507 0.0076175022        0.125    9.4589598 0.0051556963    117.37322    8474.7869 
   15800    99.360716   0.25862804   0.91913295 0.0076175022        0.125    9.5871088 0.0050900727    116.08955    8473.9513 
   15900     99.86686   0.25956595   0.92253261 0.0076175022        0.125    9.7136446 0.0050268546    115.98128    8473.1651 
   16000    100.36678   0.25942653   0.92640461 0.0076175022        0.125    9.8391172 0.0049655906    111.51069    8474.5039 
   16100    100.86051   0.25813723   0.93055743 0.0076175022        0.125    9.9610237 0.0049061418    114.98814    8474.1575 
   16200    101.34859   0.25976249   0.93433878 0.0076175022        0.125    10.082649 0.0048489929    115.19769    8473.7086 
   16300    101.83097    0.2585117   0.93838334 0.0076175022        0.125    10.205007 0.0047903142    115.95588    8472.9121 
   16400    102.30626   0.25909123   0.94175257 0.0076175022        0.125    10.385617 0.0046790442    116.26013    8471.9793 
   16500    102.78951   0.25946872   0.94532308 0.0076175022        0.125    9.8019496 0.0048308479    117.53436    8470.4916 
   16600    103.27027   0.25910734    0.9491147 0.0076175022        0.125    9.9221395 0.0047995523    113.94531    8470.5991 
   16700    103.76172   0.26029112   0.95303129 0.0076175022        0.125    10.046691 0.0048972636    117.07257    8469.3146 
   16800    104.24888   0.25986255   0.95702012 0.0076175022        0.125      10.1686 0.0048407286    115.32936    8468.7907 
   16900    104.73047   0.25936722   0.96047393 0.0076175022        0.125    10.288996 0.0047858011     113.8076    8468.9373 
   17000    105.20664   0.25931653   0.96373532 0.0076175022        0.125     10.40804 0.0047326843    115.69252     8468.244 
   17100    105.67743   0.25940826   0.96727471 0.0076175022        0.125    10.604578 0.0046423481    115.64238    8467.5702 
   17200    106.14223   0.25892239   0.97077952 0.0076175022        0.125    10.582719 0.0046466305    116.64498    8466.4695 
   17300    106.60467   0.25971705   0.97453104 0.0076175022        0.125    10.709643 0.0045923983    112.44979    8467.1884 
   17400    107.05987   0.25874942   0.97841745 0.0076175022        0.125    10.820373 0.0045222429    117.10369     8465.893 
   17500    107.52331   0.25991206   0.98172232 0.0076175022        0.125    10.344154  0.004826227    117.68484    8464.3659 
   17600    108.00343   0.25975625   0.98551347 0.0076175022        0.125    10.464185 0.0047710341    117.17409    8463.0533 
   17700    108.47812   0.25903541   0.98990748 0.0076175022        0.125    10.582857 0.0047176913    116.68178    8461.9457 
   17800    108.94716   0.25905681   0.99362026 0.0076175022        0.125    10.700721 0.0046623619    117.08502     8460.678 
   17900    109.41116   0.25996425   0.99732682 0.0076175022        0.125     10.81817 0.0046118072    117.12674    8459.3983 
   18000    109.87022   0.25988397    1.0012829 0.0076175022        0.125    10.929584  0.004564735    114.76563    8459.0816 
   18100    110.32458   0.26061881    1.0048896 0.0076175022        0.125    11.043174 0.0045179844    114.95285    8458.6817 
   18200    110.77432   0.26070307    1.0086147 0.0076175022        0.125    11.159014 0.0044713202    115.88614    8457.8988 
   18300     111.2195   0.26019305    1.0123738 0.0076175022        0.125    11.268054 0.0044289289    115.94809    8457.0902 
   18400    111.66046    0.2593142     1.016532 0.0076175022        0.125    11.378294 0.0043861786    116.13603    8456.2066 
   18500     112.0972   0.26002205    1.0198889 0.0076175022        0.125    11.487479 0.0043446418     114.8169    8455.8481 
   18600    112.52984   0.25912641    1.0244362 0.0076175022        0.125    11.595638 0.0043042621    115.64557    8455.1548 
   18700    112.95832   0.25987575    1.0283846 0.0076175022        0.125    11.571353 0.0043194127    116.47111     8454.138 
   18800    113.38941   0.25935419    1.0328608 0.0076175022        0.125    10.765123 0.0045611887    118.03742    8452.5283 
   18900    113.84345    0.2599968    1.0367228 0.0076175022        0.125    10.878633 0.0045152653    115.70685    8451.8125 
   19000    114.29296   0.26071301    1.0400433 0.0076175022        0.125    10.988776 0.0044712319    115.83982    8451.0438 
   19100    114.73821   0.26102413    1.0435881 0.0076175022        0.125    11.099186 0.0044278238    116.16466    8450.1502 
   19200    115.17587   0.26008769    1.0474736 0.0076175022        0.125    11.422284 0.0043265064    116.14469    8449.2646 
   19300    115.61043   0.26020071    1.0510064 0.0076175022        0.125    11.390155 0.0043317727    118.32947    8447.5713 
   19400    116.04183   0.25993408    1.0546861 0.0076175022        0.125    11.497787  0.004292379    115.85473    8446.7993 
   19500    116.46933   0.26058945    1.0582806 0.0076175022        0.125    11.604661 0.0042538511    117.10205    8445.5641 
   19600    116.89302   0.26064562    1.0620987 0.0076175022        0.125    11.710615  0.004216309    117.59004    8444.1555 
   19700    117.31269   0.26167217     1.065273 0.0076175022        0.125    11.829347 0.0041729796    116.63837    8443.0978 
   19800    117.72836   0.26100607    1.0693831 0.0076175022        0.125    11.936684  0.004136031    115.75558    8442.3659 
   19900    118.14017   0.26022714    1.0728956 0.0076175022        0.125    12.019228  0.004098447    112.49949    8442.8641 
   20000    118.54827   0.26000588    1.0758525 0.0076175022        0.125    12.087791 0.0040630859    113.64928    8442.9077 
   20100    118.97021   0.26059756    1.0790681 0.0076175022        0.125    10.759249 0.0041976112    117.57623    8441.5095 
   20200    119.41441   0.25938307     1.082394 0.0076175022        0.125    10.868407 0.0044489505    117.15544    8440.2649 
   20300    119.85444   0.25938679    1.0857034 0.0076175022        0.125    9.9080963 0.0043795034    118.21574    8438.6546 
   20400    120.29102   0.25949858    1.0887012 0.0076175022        0.125    10.017241 0.0043475504    116.46894    8437.6611 
   20500    120.72428    0.2603226    1.0918499 0.0076175022        0.125    10.125556 0.0043144677    116.73868     8436.574 
   20600    121.15426   0.26062501    1.0948975 0.0076175022        0.125     10.27308  0.004281411    115.88239    8435.7902 
   20700    121.59913   0.26064788    1.0980645 0.0076175022        0.125    10.411035 0.0047060074    116.62513    8434.7456 
   20800    122.06995   0.26119494    1.1016318 0.0076175022        0.125    8.5005922 0.0046947393    119.36736    8432.7754 
   20900    122.53764   0.26056325    1.1048533 0.0076175022        0.125    8.7163033 0.0046405019    117.03256    8431.5991 
   21000    123.02903   0.26037093    1.1082555 0.0076175022        0.125    8.3641913 0.0049723166    116.69389    8430.5414 
   21100    123.52352   0.26090551    1.1116221 0.0076175022        0.125     8.437267 0.0048993785    114.87414    8430.1155 
   21200    124.01081    0.2612401    1.1148591 0.0076175022        0.125    8.6274778 0.0048874442     117.9828    8428.6263 
   21300    124.49852   0.26073723    1.1183808 0.0076175022        0.125    8.6216545 0.0048537212    117.40562    8427.3346 
   21400    124.98398   0.26029177    1.1223551 0.0076175022        0.125     8.801751  0.004813768    117.49475    8426.0175 
   21500    125.50458   0.25930625    1.1267206 0.0076175022        0.125    8.2821418    0.0053706    116.17789    8425.1438 
   21600    126.03946   0.25960068    1.1300685 0.0076175022        0.125    8.4089894 0.0053223373    115.30115    8424.5667 
   21700    126.56955   0.26029594    1.1341932 0.0076175022        0.125    8.5432257 0.0052747329    114.28453    8424.3347 
   21800    127.09299   0.25958554     1.137424 0.0076175022        0.125     8.673885 0.0052518676    116.41525    8423.3782 
   21900    127.64705   0.26093218    1.1399306 0.0076175022        0.125    8.8119278 0.0055307025    115.90455    8422.5916 
   22000    128.19753   0.25973335    1.1443364 0.0076175022        0.125     8.975941 0.0054461438    117.13512    8421.4014 
   22100    128.73731   0.25911037     1.148463 0.0076175022        0.125    9.1331652 0.0053546955    115.60091    8420.7156 
   22200    129.26944   0.25890909    1.1520875 0.0076175022        0.125    9.2661982   0.00528108    115.38815    8420.0984 
   22300    129.79584   0.26018048    1.1553633 0.0076175022        0.125    8.8923121 0.0052870134    116.02854    8419.2693 
   22400    130.32153   0.25875233    1.1596929 0.0076175022        0.125    9.1673001 0.0052197736    114.36833    8418.9859 
   22500    130.84239   0.26008256    1.1638874 0.0076175022        0.125    9.2957141 0.0052899449    117.65965    8417.6347 
   22600    131.36814   0.26019824    1.1682464 0.0076175022        0.125    9.4271536 0.0052185575    113.16865    8417.7465 
   22700    131.88689   0.26017473    1.1717062 0.0076175022        0.125    9.5568403 0.0051499557     116.5781     8416.737 
   22800    132.39883   0.25977834    1.1750018 0.0076175022        0.125    9.6885606 0.0050824174    116.36919    8415.7948 
   22900    132.90419    0.2600464    1.1778566 0.0076175022        0.125    9.8149019  0.005018928    116.09319    8414.9405 
   23000    133.40329   0.26079023    1.1816443 0.0076175022        0.125    9.9416045 0.0049554936    116.00607    8414.1136 
   23100    133.89664   0.25918737    1.1854053 0.0076175022        0.125    10.045422  0.004902968    116.12565    8413.2488 
   23200    134.38435   0.25878095    1.1893916 0.0076175022        0.125     10.16735 0.0048458858    116.64761    8412.2219 
   23300    134.86644   0.25913471    1.1929039 0.0076175022        0.125    10.287873  0.004790734    117.12743    8411.0492 
   23400     135.3431   0.26009926    1.1961352 0.0076175022        0.125    10.407037 0.0047374067    117.09601    8409.8888 
   23500    135.80809   0.25979575    1.1999159 0.0076175022        0.125    10.962738 0.0044881818      117.658    8408.5615 
   23600    136.25451   0.25929201    1.2035514 0.0076175022        0.125    11.073869 0.0044633558     116.3761    8407.6255 
   23700    136.69821   0.25881152     1.206925 0.0076175022        0.125    11.236212 0.0044178633    117.46948    8406.3608 
   23800    137.13808   0.25925553    1.2103191 0.0076175022        0.125    11.346181 0.0043756501    115.43585    8405.7146 
   23900    137.57379   0.25871149    1.2138855 0.0076175022        0.125    11.455109 0.0043346191    116.43706    8404.7624 
   24000    138.00545   0.26050009    1.2164774 0.0076175022        0.125    11.563023 0.0042947164    115.92323    8403.9658 
   24100    138.43316     0.258879    1.2193259 0.0076175022        0.125    11.669952 0.0042558912    114.06424     8403.738 
   24200    138.85674   0.25902853    1.2221119 0.0076175022        0.125    11.063398 0.0043102314    115.76645    8402.9849 
   24300    139.28171    0.2596319    1.2247633 0.0076175022        0.125    11.172445 0.0042262174    115.04608    8402.4482 
   24400    139.70268   0.26013386    1.2275487 0.0076175022        0.125    11.294098 0.0041943819    115.40374     8401.801 
   24500    140.12668   0.25937987     1.230385 0.0076175022        0.125    10.960774 0.0043702028    122.11519    8399.2558 
   24600    140.56984   0.25923662    1.2336049 0.0076175022        0.125    10.466176 0.0044082697    119.94764    8397.3114 
   24700    141.00845   0.25889365    1.2368579 0.0076175022        0.125    10.540092 0.0043638254     113.6697    8397.1941 
   24800    141.44319   0.25975628    1.2393826 0.0076175022        0.125    10.648777 0.0043273964    114.95666    8396.6834 
   24900    141.87432   0.25876711    1.2428509 0.0076175022        0.125    10.755723 0.0042910681    116.40426    8395.7461 
   25000    142.31325   0.25885998    1.2461368 0.0076175022        0.125    10.865455 0.0044243677    116.05345    8394.9108 
   25100    142.75383   0.25914652    1.2497239 0.0076175022        0.125      10.9756 0.0043832774    117.30508    8393.7181 
   25200    143.19035   0.25878323    1.2530896 0.0076175022        0.125     11.08473 0.0043432822    114.52184    8393.3296 
   25300    143.62257    0.2596243    1.2560407 0.0076175022        0.125    11.190268 0.0043049137    114.27485    8393.0099 
   25400    144.05115   0.25861614    1.2594427 0.0076175022        0.125    11.306259 0.0042523934    115.98051    8392.1921 
   25500    144.48674   0.25908584    1.2622027 0.0076175022        0.125    9.4852678 0.0045853892    117.90172     8390.837 
   25600    144.94541   0.25829427    1.2657542 0.0076175022        0.125    9.5999351 0.0045847183    117.86212    8389.4967 
   25700    145.40372    0.2586743    1.2687692 0.0076175022        0.125    9.7191021 0.0045807135    116.78041    8388.4582 
   25800    145.86157   0.25884521    1.2718388 0.0076175022        0.125    10.044322 0.0045751288    115.96717    8387.6478 
   25900    146.32671   0.25986655    1.2752465 0.0076175022        0.125    10.102104 0.0046806727    115.75121    8386.8975 
   26000    146.79285   0.25915087    1.2787054 0.0076175022        0.125    10.211094 0.0046355496    115.81996    8386.1272 
   26100    147.25446   0.25888976    1.2822766 0.0076175022        0.125    10.317956 0.0045910286    114.61895    8385.6937 
   26200    147.72544   0.25799963    1.2861613 0.0076175022        0.125    9.3411261 0.0047037825    115.01311    8385.1458 
   26300    148.22159   0.25925346    1.2894814 0.0076175022        0.125    9.4651645 0.0050120767    117.15694    8384.0063 
   26400    148.72107   0.25882575    1.2935838 0.0076175022        0.125    9.5881605 0.0049736469    115.53481     8383.311 
   26500    149.21671   0.25939675    1.2967058 0.0076175022        0.125    9.7054121 0.0049325636    116.54891    8382.3377 
   26600    149.70528   0.25952049    1.2998662 0.0076175022        0.125    9.8918822 0.0048233444    116.88973    8381.2738 
   26700    150.19002   0.25920046    1.3028538 0.0076175022        0.125     7.902437 0.0048302314    114.30964    8380.9153 
   26800    150.68962   0.25999133    1.3058194 0.0076175022        0.125    8.0273358 0.0051040463    114.20726    8380.5814 
   26900    151.21048   0.25853799    1.3095537 0.0076175022        0.125    8.2190695   0.00545185    117.14925    8379.4481 
   27000    151.75277   0.25843094    1.3136007 0.0076175022        0.125    8.3582817 0.0053863383     114.3644    8379.0659 
   27100    152.28845   0.25755552    1.3176702 0.0076175022        0.125    8.4922041 0.0053212917    113.87147     8378.816 
   27200    152.81773   0.25745076    1.3212244 0.0076175022        0.125    8.6940769 0.0052582597     115.9934    8377.9868 
   27300    153.34079    0.2587771    1.3245862 0.0076175022        0.125    8.8669509 0.0051971521    116.57023    8377.0055 
   27400    153.85758    0.2596512     1.327624 0.0076175022        0.125    8.9961475  0.005117525    116.75655    8375.9764 
   27500    154.36578   0.25896496    1.3310937 0.0076175022        0.125    9.1198964 0.0050207768    116.01884    8375.1412 
   27600    154.88982   0.25853286    1.3343256 0.0076175022        0.125    9.2800795 0.0052466238    117.63681    8373.8881 
   27700    155.41343    0.2584042    1.3380057 0.0076175022        0.125    9.1153714 0.0052298715    119.73524     8372.115 
   27800    155.93562   0.25853146    1.3407776 0.0076175022        0.125    7.4998468 0.0058500798    117.15226    8370.9926 
   27900    156.50788   0.25800039    1.3446743 0.0076175022        0.125    7.6483462 0.0056860187    117.64582    8369.7473 
   28000    157.07318   0.25886499    1.3477271 0.0076175022        0.125    7.7866224 0.0056132407    115.81958    8368.9702 
   28100    157.63132   0.25745149    1.3520592 0.0076175022        0.125    7.9121298 0.0055427252    116.31843    8368.0643 
   28200     158.1825    0.2597762    1.3550334 0.0076175022        0.125    7.4876364 0.0054743789    116.34617    8367.1518 
   28300    158.72694   0.25868828    1.3584871 0.0076175022        0.125    7.6237462 0.0054081116    116.15614    8366.2879 
   28400    159.26484   0.25900765    1.3623816 0.0076175022        0.125    7.7582219 0.0053438372    115.01021    8365.7174 
   28500     159.7964   0.25926453    1.3660198 0.0076175022        0.125    7.8911123 0.0052814729    116.18761    8364.8446 
   28600    160.34049   0.25956512    1.3697957 0.0076175022        0.125    6.8180179 0.0059861244    116.85642    8363.8044 
   28700    160.93344   0.25910297    1.3740878 0.0076175022        0.125    8.3410829 0.0058158567    116.18667    8362.9325 
   28800    161.51047   0.25916582    1.3785365 0.0076175022        0.125    8.5246772  0.005678994    116.88237     8361.888 
   28900    162.08891   0.25829768     1.381699 0.0076175022        0.125    7.2436062 0.0058563609    118.09848    8360.5487 
   29000    162.67108   0.25924053    1.3853866 0.0076175022        0.125    8.0422023  0.005773934    116.26136    8359.6608 
   29100    163.24487   0.25787603    1.3889907 0.0076175022        0.125    8.1856488 0.0056833655    116.01454    8358.8342 
   29200    163.81215   0.25941079    1.3929173 0.0076175022        0.125    7.6106888  0.005634703     116.7811    8357.8192 
   29300    164.42044   0.25978545    1.3969395 0.0076175022        0.125    7.4437996 0.0062320887    119.81182    8356.0877 
   29400    165.04509   0.25841826     1.402054 0.0076175022        0.125    7.5999619 0.0062239356    119.39458    8354.4586 
   29500    165.66826   0.25935346    1.4062111 0.0076175022        0.125     7.755103 0.0061931671     117.6277    8353.2487 
   29600    166.29148    0.2591436    1.4110322 0.0076175022        0.125    7.9007476 0.0063023266    117.27097     8352.126 
   29700    166.91636   0.25918465    1.4148239 0.0076175022        0.125    8.0543471 0.0061828731    114.94106    8351.5699 
   29800    167.52944   0.25929745    1.4197605 0.0076175022        0.125    8.2076169 0.0060683143    116.92597    8350.5308 
   29900    168.13134   0.25928103    1.4238549 0.0076175022        0.125    8.3620718 0.0059569236    117.01476    8349.4719 
   30000    168.74057   0.25838765     1.428197 0.0076175022        0.125    7.8486804 0.0060996318    114.46037     8349.031 
   30100     169.3509    0.2589704    1.4324044 0.0076175022        0.125     7.717397 0.0061039626    114.60345    8348.5521 
   30200    169.95408   0.25896102    1.4359141 0.0076175022        0.125    7.7407494 0.0060256654    117.33028    8347.4194 
   30300    170.55158   0.25834155     1.440014 0.0076175022        0.125    7.8899508 0.0059552111    116.88087    8346.3934 
   30400    171.14311   0.25817458    1.4445579 0.0076175022        0.125    8.0291448 0.0058673013    118.59707    8344.9736 
   30500    171.72592   0.25812733    1.4481473 0.0076175022        0.125    8.1362517 0.0057780761    117.00135    8343.9231 
   30600    172.29974   0.25810138    1.4515269 0.0076175022        0.125    8.2951304 0.0056974935    115.25254    8343.2848 
   30700    172.86273   0.25904598    1.4552681 0.0076175022        0.125     8.670749  0.005559569    117.17105    8342.1965 
   30800    173.41459   0.25924327    1.4599194 0.0076175022        0.125    8.9291915 0.0053946306    117.00794     8341.147 
   30900    173.96901   0.25945675     1.463863 0.0076175022        0.125    8.4849514 0.0055098387    117.43662    8340.0011 
   31000    174.52223   0.25970215    1.4678968 0.0076175022        0.125    8.4307499 0.0055461926    118.58346    8338.5996 
   31100    175.07373   0.25880274    1.4719873 0.0076175022        0.125    8.5536211 0.0054737921    116.14456    8337.7534 
   31200    175.61769   0.26032146    1.4759857 0.0076175022        0.125    8.6896122 0.0053984583    116.81206    8336.7543 
   31300     176.1526   0.25937018    1.4803966 0.0076175022        0.125    9.0598387 0.0053231687    114.00298    8336.4089 
   31400    176.68299   0.25897967    1.4836651 0.0076175022        0.125    9.1638993 0.0052625359    117.38676    8335.2802 
   31500    177.20913   0.25933917    1.4874579 0.0076175022        0.125    8.5299061 0.0051757823    117.35037    8334.1614 
   31600    177.72407   0.25971255    1.4913431 0.0076175022        0.125    8.8501148 0.0051174736     116.8668    8333.1523 
   31700    178.23325   0.25936398    1.4946488 0.0076175022        0.125    8.9774111 0.0050610183    116.05949     8332.326 
   31800    178.73687   0.25918857    1.4976447 0.0076175022        0.125    9.1033148 0.0050060385    114.79265     8331.789 
   31900    179.23505    0.2576752    1.5009206 0.0076175022        0.125    9.2278612 0.0049531042    115.27776    8331.1387 
   32000    179.72807   0.25913763     1.504328 0.0076175022        0.125    9.3511154 0.0049030238    116.16952    8330.2855 
   32100    180.21543   0.25920601    1.5077798 0.0076175022        0.125    9.6839179 0.0048586697     116.7755    8329.2976 
   32200    180.71912   0.25892405    1.5117955 0.0076175022        0.125     9.588408 0.0051261367    118.71593    8327.8898 
   32300    181.22881   0.25906593    1.5150597 0.0076175022        0.125     9.682338 0.0050535594    116.27973    8327.0143 
   32400     181.7517   0.25788435    1.5187571 0.0076175022        0.125    9.0064916 0.0052380973    116.43774     8326.104 
   32500    182.27346   0.25869147    1.5222255 0.0076175022        0.125    9.0356315 0.0053165535    117.64374     8324.932 
   32600    182.80352   0.25891345    1.5258433 0.0076175022        0.125    9.1800463 0.0052633452    116.30952    8324.0512 
   32700    183.32674   0.26041156    1.5296605 0.0076175022        0.125    9.2993817 0.0051946442     116.8265    8323.0581 
   32800    183.84311   0.25929696    1.5337189 0.0076175022        0.125    9.6449088 0.0051232372    116.78614    8322.0745 
   32900     184.3525   0.25855367    1.5385177 0.0076175022        0.125    9.6062494 0.0050575814    116.79749    8321.0892 
   33000     184.8533   0.26004193    1.5420392 0.0076175022        0.125    9.7875058  0.004986152    116.03727    8320.2691 
   33100    185.34679   0.26033729    1.5456382 0.0076175022        0.125    9.9711351  0.004901976    116.71061    8319.3035 
   33200    185.83368   0.25984576    1.5490984 0.0076175022        0.125    9.9477175 0.0049318194    116.26677    8318.4338 
   33300    186.32409   0.25990133    1.5521061 0.0076175022        0.125    10.071149 0.0048741617    117.57778    8317.2858 
   33400    186.80877   0.25931416    1.5550991 0.0076175022        0.125    10.173918 0.0048147158     117.3819    8316.1806 
   33500    187.28908   0.25912669    1.5582151 0.0076175022        0.125    10.251748 0.0047754404    118.06138    8314.9354 
   33600    187.76427   0.25867173    1.5614803 0.0076175022        0.125    10.370117 0.0047231944     116.9011    8313.9345 
   33700    188.23429   0.25975563    1.5641322 0.0076175022        0.125    10.487622 0.0046723775    116.73433    8312.9694 
   33800     188.6993   0.25967306     1.567427 0.0076175022        0.125    10.603874 0.0046231455    117.03533     8311.942 
   33900    189.15945   0.25974374    1.5706341 0.0076175022        0.125    10.718913 0.0045754183    116.47353    8311.0331 
   34000    189.61489   0.25946181    1.5734393 0.0076175022        0.125    10.832649 0.0045288213    116.58315    8310.1015 
   34100    190.06563   0.25990895    1.5766757 0.0076175022        0.125    10.936424 0.0044820943    116.09505    8309.2726 
   34200    190.51139   0.25999917    1.5796702 0.0076175022        0.125     11.28649 0.0044116838    117.23494    8308.2069 
   34300    190.96818   0.25912094    1.5828219 0.0076175022        0.125    10.145483 0.0046901729    120.40882    8306.5094 
   34400    191.43656   0.25886582    1.5862828 0.0076175022        0.125     9.213366 0.0046672877    118.02739    8305.2873 
   34500    191.90185   0.25910084    1.5892534 0.0076175022        0.125    10.192352 0.0046356428    116.17248     8304.446 
   34600    192.36401   0.25980875    1.5923945 0.0076175022        0.125    10.307891 0.0046044096    117.15527    8303.4031 
   34700    192.82309   0.26017966    1.5953334 0.0076175022        0.125    10.384356 0.0045735713    117.51351    8302.2889 
   34800    193.28463    0.2593467    1.5981524 0.0076175022        0.125    10.496279 0.0045947206    117.81296    8301.1163 
   34900    193.74949   0.25861845    1.6015052 0.0076175022        0.125    9.7859534 0.0045914727    120.13371    8299.4921 
   35000    194.20844   0.25943463    1.6039309 0.0076175022        0.125    9.9006888  0.004571965    116.75681    8298.5361 
   35100    194.68145   0.25860699    1.6072689 0.0076175022        0.125    10.017924 0.0049768157    117.34032    8297.4636 
   35200     195.1764   0.25988424    1.6105076 0.0076175022        0.125    10.141501 0.0049166089    117.33963    8296.3926 
   35300    195.66543   0.25975486    1.6140053 0.0076175022        0.125    10.263674 0.0048583987     114.8674    8295.8241 
   35400    196.14872   0.25987865    1.6164522 0.0076175022        0.125    10.384497 0.0048021708    116.68039    8294.8852 
   35500    196.62648   0.25838094     1.619552 0.0076175022        0.125    10.503936 0.0047478485    115.38565    8294.2081 
   35600    197.09886   0.25826267    1.6222157 0.0076175022        0.125    10.633324 0.0046905577    116.20772    8293.3638 
   35700    197.56545   0.25851528    1.6251308 0.0076175022        0.125    10.756372 0.0046382164    117.22944    8292.3168 
   35800      198.027    0.2588059    1.6278096 0.0076175022        0.125     10.87062 0.0045890555    116.61453    8291.3921 
   35900    198.48374   0.25919556     1.630119 0.0076175022        0.125    10.989976 0.0045392038    116.60121    8290.4704 
   36000     198.9356   0.25971436    1.6332342 0.0076175022        0.125     11.10133 0.0044937684    115.23076    8289.8222 
   36100    199.38295   0.25818781    1.6363881 0.0076175022        0.125    11.216781 0.0044474456    113.70976    8289.4828 
   36200     199.8258   0.25878272    1.6388366 0.0076175022        0.125    11.320943 0.0044049799    116.22879    8288.6328 
   36300    200.26417   0.25848778    1.6413348 0.0076175022        0.125     11.41984 0.0043631204    116.02854    8287.8223 
   36400    200.69827   0.25846733    1.6438803 0.0076175022        0.125      11.5284 0.0043163016    114.82307    8287.2509 
   36500    201.12893   0.25936959    1.6466264 0.0076175022        0.125    11.264292 0.0042959422    118.22527    8286.0164 
   36600    201.55835   0.25791199    1.6498775 0.0076175022        0.125    9.8786554 0.0042343436    117.13221    8284.9918 
   36700    201.98048   0.25729446    1.6522892 0.0076175022        0.125    9.9826579 0.0041935028    116.64719    8284.0612 
   36800    202.40156   0.25931331    1.6544255 0.0076175022        0.125    10.087816 0.0042032742    116.68993    8283.1229 
   36900    202.82084   0.25795309    1.6575354 0.0076175022        0.125    10.211535 0.0041804112    116.52715    8282.2162 
   37000    203.23667   0.25912473    1.6600825 0.0076175022        0.125    10.304476 0.0046860792     113.6156    8281.8822 
   37100    203.69937   0.25931926    1.6623003 0.0076175022        0.125    10.423397 0.0047168621    115.61414    8281.1503 
   37200    204.16861   0.25863856     1.665933 0.0076175022        0.125    10.548102 0.0046639716    114.68536     8280.599 
   37300    204.63272   0.25892027    1.6680424 0.0076175022        0.125    10.661513  0.004622922    117.41361    8279.5231 
   37400    205.09294   0.25978229    1.6705698 0.0076175022        0.125    10.774884 0.0045762677    116.72724    8278.5773 
   37500    205.54829    0.2583734    1.6730915 0.0076175022        0.125     10.95336 0.0045014603    115.76485    8277.8147 
   37600    206.00112   0.25803802    1.6758695 0.0076175022        0.125    10.814419 0.0045447287    119.14919    8276.4236 
   37700    206.45352   0.25804509    1.6789022 0.0076175022        0.125    10.925325  0.004501824     116.8586    8275.4553 
   37800    206.90169   0.25893238    1.6814462 0.0076175022        0.125    11.036373 0.0044596421    116.93461    8274.4735 
   37900    207.33896   0.25907361    1.6845226 0.0076175022        0.125    9.8267011 0.0043086963    118.83753    8273.1447 
   38000    207.83324   0.25912034    1.6878135 0.0076175022        0.125    8.3623891  0.005710923    117.72612    8272.0196 
   38100    208.40058   0.25822834    1.6916522 0.0076175022        0.125    8.4655838 0.0058534027    114.84168    8271.4346 
   38200    208.98164   0.25864703    1.6948357 0.0076175022        0.125    8.6083748  0.005757796    116.73013    8270.4934 
   38300    209.55323   0.25795194    1.6983905 0.0076175022        0.125    8.7512707  0.005665368    116.20367    8269.6501 
   38400    210.11576   0.25784625    1.7017872 0.0076175022        0.125    8.8919049 0.0055772316    116.25391    8268.7974 
   38500    210.66967   0.25912617    1.7052626 0.0076175022        0.125    9.0303809 0.0054930657    117.05215    8267.7981 
   38600    211.21532   0.25883203    1.7085355 0.0076175022        0.125    9.1667948 0.0054125816    116.34672    8266.9286 
   38700    211.75309    0.2583169    1.7117817 0.0076175022        0.125    9.3012356 0.0053355192    114.73022      8266.36 
   38800    212.28329   0.25821223    1.7156193 0.0076175022        0.125    9.4337861 0.0052616433    116.53314    8265.4558 
   38900    212.80624    0.2584919    1.7194723 0.0076175022        0.125    9.5645236 0.0051907408    115.15508    8264.8055 
   39000    213.32223   0.25908833    1.7225251 0.0076175022        0.125    9.6935202 0.0051226179    114.18264    8264.3363 
   39100    213.83138   0.25854646    1.7256935 0.0076175022        0.125     9.824305 0.0050535093    116.73582    8263.3943 
   39200    214.33379    0.2594434    1.7281854 0.0076175022        0.125    9.9513666 0.0049900892    116.00254    8262.5855 
   39300    214.83406   0.25731903    1.7318077 0.0076175022        0.125    9.6029629 0.0051078961    115.57756    8261.8538 
   39400    215.36029   0.25791605    1.7356847 0.0076175022        0.125    9.5265581 0.0052429167    115.35169    8261.1629 
   39500    215.88138   0.25877825    1.7393929 0.0076175022        0.125    9.6568311 0.0051723354    115.90144     8260.371 
   39600    216.39549   0.25894313    1.7428213 0.0076175022        0.125    9.8180638 0.0050867481    116.80646    8259.4166 
   39700     216.9013   0.25915987    1.7464658 0.0076175022        0.125    9.9460636 0.0050162681     116.2323    8258.5651 
   39800    217.40444   0.25838458    1.7502357 0.0076175022        0.125    9.8930385 0.0050136605    118.80054    8257.2647 
   39900    217.90386   0.25934599    1.7539481 0.0076175022        0.125    9.9927244 0.0049633097    117.18015    8256.2468 
   40000    218.39749   0.25952364    1.7570188 0.0076175022        0.125    10.116132 0.0049037164    114.51487    8255.7064 
   40100     218.8851   0.25893541    1.7606568 0.0076175022        0.125    10.266376 0.0048307887    113.11795    8255.4224 
   40200     219.4028    0.2598015    1.7648645 0.0076175022        0.125    8.9890388 0.0055062467    117.90645    8254.2783 
   40300    219.94977   0.25909294    1.7685773 0.0076175022        0.125    9.1256344 0.0054254466    116.48075    8253.3828 
   40400    220.48869   0.25866256    1.7731132 0.0076175022        0.125    9.2774348 0.0053399562    116.80851    8252.4303 
   40500    221.02004   0.25959899    1.7764029 0.0076175022        0.125    9.3908568 0.0052831537    116.55691    8251.5221 
   40600    221.54513   0.25962489    1.7803973 0.0076175022        0.125    9.5216666 0.0052116504    113.28171    8251.2003 
   40700    222.06317   0.25868783    1.7841499 0.0076175022        0.125     9.651177 0.0051427428    116.80754    8250.2476 
   40800    222.57444   0.25912887    1.7880002 0.0076175022        0.125    9.7789949 0.0050764865    116.33778    8249.3768 
   40900    223.08134   0.25812349    1.7918655 0.0076175022        0.125    9.1901601 0.0052582336    118.23784     8248.182 
   41000    223.60647   0.25925425    1.7957194 0.0076175022        0.125     9.273254 0.0052139031    117.17547    8247.1683 
   41100    224.12434   0.25975928    1.7996486 0.0076175022        0.125    9.6409967 0.0051398152    117.00161     8246.185 
   41200    224.63937   0.25912495    1.8035671 0.0076175022        0.125    9.6743247 0.0051222374    117.51684    8245.1151 
   41300    225.15224   0.25855781    1.8078055 0.0076175022        0.125    9.7197966 0.0050938282    117.51407    8244.0467 
   41400    225.65917   0.25972964    1.8111027 0.0076175022        0.125    9.8350594 0.0050361406     117.4725    8242.9864 
   41500    226.16004   0.25897353    1.8149235 0.0076175022        0.125    9.9587177 0.0049725437    116.89876    8242.0235 
   41600    226.65653    0.2591312    1.8185466 0.0076175022        0.125    10.005447 0.0049421014    118.61032    8240.7768 
   41700    227.14864   0.25984492     1.821982 0.0076175022        0.125    10.111958 0.0048900518    116.28163      8239.92 
   41800    227.63507   0.25960677    1.8246282 0.0076175022        0.125    10.233565 0.0048331961    116.72562    8238.9882 
   41900    228.11591    0.2602154    1.8276545 0.0076175022        0.125     10.35307  0.004778445    116.86202     8238.034 
   42000    228.59132   0.25868679    1.8313296 0.0076175022        0.125     10.48239 0.0047197752    114.34257    8237.5102 
   42100    229.06027   0.25901785    1.8344526 0.0076175022        0.125    10.596173 0.0046607994    114.17114    8237.0147 
   42200    229.52413   0.25840188    1.8375841 0.0076175022        0.125    10.712113 0.0046116006    116.27435    8236.1578 
   42300     229.9831   0.25963672     1.840632 0.0076175022        0.125    10.826731 0.0045627618    116.06665    8235.3357 
   42400    230.43759   0.25936978    1.8436235 0.0076175022        0.125    10.912358 0.0045223337    115.41505    8234.6233 
   42500    230.90069   0.26080773    1.8459767 0.0076175022        0.125        7.317 0.0048368685     117.1029    8233.6288 
   42600    231.38632   0.26018768    1.8492276 0.0076175022        0.125    8.1437041 0.0048486265     118.6718    8232.3812 
   42700    231.86963   0.25927581    1.8523583 0.0076175022        0.125    7.5477828 0.0048142236    116.32562    8231.5166 
   42800     232.3495   0.25891745    1.8552171 0.0076175022        0.125    7.7037397 0.0047797208    116.57768    8230.6104 
   42900    232.82612   0.25994048    1.8584313 0.0076175022        0.125    7.8218911 0.0047484649    116.31059    8229.7484 
   43000    233.31361   0.26069671    1.8612511 0.0076175022        0.125    7.9430861 0.0054611538     116.1582    8228.9115 
   43100    233.85941   0.25977127    1.8646418 0.0076175022        0.125    8.0795374 0.0054549142    119.22644    8227.5826 
   43200    234.40381   0.25947683    1.8681825 0.0076175022        0.125    8.2156354  0.005438213    116.60299     8226.674 
   43300    234.95628   0.26015376    1.8713123 0.0076175022        0.125    8.3591353 0.0057210345     116.3803    8225.8018 
   43400    235.53179   0.26019816    1.8748628 0.0076175022        0.125    8.0085913 0.0057023158    118.68563    8224.5618 
   43500     236.1017   0.25922815    1.8786854 0.0076175022        0.125    8.1339163 0.0056906948    118.97736    8223.2782 
   43600    236.66822    0.2585235    1.8823511 0.0076175022        0.125     8.224008 0.0056341856    117.17065     8222.281 
   43700    237.22807   0.26011369    1.8847451 0.0076175022        0.125    8.3519243 0.0054904387    118.64323    8221.0526 
   43800    237.80959   0.25942707    1.8882038 0.0076175022        0.125    8.5012546 0.0057992771     117.7144    8219.9711 
   43900    238.38502    0.2601197    1.8912911 0.0076175022        0.125    8.6395599 0.0057044066    117.06297    8218.9936 
   44000    238.95135   0.25989051    1.8943145 0.0076175022        0.125    8.7744224  0.005615739    115.88063    8218.2061 
   44100    239.50867   0.25958676    1.8982048 0.0076175022        0.125    8.9258502  0.005524509    111.81868    8218.0978 
   44200    240.05763   0.25833563    1.9016179 0.0076175022        0.125    9.0463408 0.0054511629    115.51559    8217.3669 
   44300     240.5992    0.2578693     1.905344 0.0076175022        0.125    9.1817328 0.0053729275    115.57473    8216.6259 
   44400    241.13273   0.25892815    1.9083555 0.0076175022        0.125    9.3839201 0.0052594042    116.12179    8215.7967 
   44500    241.65605   0.25871459    1.9119085 0.0076175022        0.125    9.4768912  0.005204759    118.66831    8214.5704 
   44600    242.17343   0.25867927     1.915736 0.0076175022        0.125    9.6064775 0.0051362904    116.25784    8213.7202 
   44700    242.68407   0.25743907    1.9191826 0.0076175022        0.125    9.7369335 0.0050673569    116.47451    8212.8357 
   44800    243.20716   0.25903655    1.9222238 0.0076175022        0.125    8.6646356 0.0056618257    117.91534    8211.7277 
   44900      243.766   0.25904403    1.9258114 0.0076175022        0.125     8.685204 0.0054379765    116.06986    8210.9076 
   45000    244.29773   0.25849817     1.929503 0.0076175022        0.125    8.8201024 0.0052674174    115.46944    8210.1825 
   45100    244.82142    0.2587606     1.933508 0.0076175022        0.125    8.9113759 0.0052004549    116.44398    8209.3032 
   45200    245.33854   0.25829244    1.9370053 0.0076175022        0.125    9.0430416 0.0051234738    117.08574    8208.3246 
   45300    245.87509   0.25917697    1.9400219 0.0076175022        0.125     9.174755 0.0053967415    118.24217    8207.1706 
   45400    246.41132    0.2594494     1.943493 0.0076175022        0.125    9.3085253 0.0053206326     116.0804     8206.349 
   45500    246.93991   0.25837375    1.9473377 0.0076175022        0.125    9.4448604 0.0052449881    116.57143    8205.4512 
   45600    247.46121   0.25824359    1.9501964 0.0076175022        0.125    9.5775732  0.005172628    116.95756    8204.4942 
   45700    247.97536   0.25827775    1.9530242 0.0076175022        0.125    9.6951136 0.0051052355    113.74572    8204.0418 
   45800    248.48094   0.25859689     1.956419 0.0076175022        0.125    9.8340459 0.0049957846    116.16238    8203.2066 
   45900    248.98545   0.25974241    1.9589412 0.0076175022        0.125    9.1379178 0.0049998288    118.38999    8202.0345 
   46000    249.48402   0.25814912    1.9620359 0.0076175022        0.125    9.2625605 0.0049684549    115.61548    8201.2842 
   46100    249.97636   0.25754276    1.9651182 0.0076175022        0.125    9.3856438 0.0047802845     116.6638    8200.3726 
   46200    250.45259    0.2575562    1.9683492 0.0076175022        0.125    9.5124515  0.004747732    117.29133    8199.3666 
   46300    250.92602   0.25773483    1.9715382 0.0076175022        0.125    9.6318559 0.0047179383    116.92062    8198.4169 
   46400    251.40789   0.25895366    1.9747602 0.0076175022        0.125    9.7445109 0.0050682227    117.19017    8197.4271 
   46500    251.90972   0.25917651    1.9777932 0.0076175022        0.125    8.8916966 0.0056108014    116.99025    8196.4679 
   46600    252.46689   0.25930723    1.9816398 0.0076175022        0.125     9.030989 0.0055246345    116.27651    8195.6164 
   46700    253.01561   0.25843186    1.9852652 0.0076175022        0.125     9.171742 0.0054402452    117.38245    8194.5996 
   46800    253.55659   0.25837368    1.9889079 0.0076175022        0.125    9.2901854 0.0053714189    115.91864    8193.8025 
   46900     254.0903   0.25923692    1.9921953 0.0076175022        0.125    9.4236119 0.0052956594    115.79745    8193.0235 
   47000    254.61351   0.25785409    1.9959437 0.0076175022        0.125    9.5544139  0.005201412    116.68951    8192.1103 
   47100    255.13076    0.2594417    1.9981546 0.0076175022        0.125    9.6837259 0.0051539357    117.82074    8191.0308 
   47200     255.6431   0.25862724    2.0018061 0.0076175022        0.125    9.8123467 0.0050865939    116.80796     8190.101 
   47300    256.14883   0.25849165    2.0053944 0.0076175022        0.125    9.9392303 0.0050218334    117.20733    8189.1126 
   47400     256.6482   0.25790013    2.0086883 0.0076175022        0.125    10.064073 0.0049597509    116.51848    8188.2262 
   47500    257.14146     0.259409    2.0113374 0.0076175022        0.125    10.191241 0.0048978606    115.98493     8187.419 
   47600    257.62733   0.25780743    2.0152475 0.0076175022        0.125    10.317309 0.0048367846    118.00411    8186.3165 
   47700    258.10849   0.25808422    2.0187636 0.0076175022        0.125      10.4376  0.004781255    113.13422    8185.9433 
   47800    258.58419   0.25891593    2.0218219 0.0076175022        0.125    10.556524 0.0047275934    116.67536    8185.0335 
   47900     259.0546   0.25812328    2.0251126 0.0076175022        0.125    10.674127 0.0046756975    116.81014    8184.1043 
   48000    259.51984   0.25856726    2.0284393 0.0076175022        0.125    10.792741 0.0046249589    115.22436    8183.4091 
   48100    259.98014   0.25959166    2.0309708 0.0076175022        0.125    10.907912 0.0045762708    116.68938    8182.4976 
   48200    260.43559   0.25867144    2.0340434 0.0076175022        0.125    10.996094 0.0045374142    116.72032    8181.5817 
   48300    260.88726   0.25862518    2.0371768 0.0076175022        0.125    11.108893 0.0044915175     115.7784    8180.8035 
   48400    261.33439   0.25838977    2.0406675 0.0076175022        0.125    11.220677 0.0044469552    116.84561    8179.8698 
   48500    261.77637   0.25792059    2.0442004 0.0076175022        0.125    11.289152 0.0044088406    117.35024    8178.8642 
   48600    262.21619   0.25989358     2.047062 0.0076175022        0.125    11.325244 0.0043896692    117.52056    8177.8351 
   48700     262.6533   0.25922565    2.0501915 0.0076175022        0.125    11.432487 0.0043494874    117.20333    8176.8517 
   48800    263.08641   0.25945536    2.0539404 0.0076175022        0.125    11.537801 0.0043088412    117.27385    8175.8588 
   48900    263.51816   0.25936013    2.0568427 0.0076175022        0.125    11.501491 0.0043354955    119.97602     8174.493 
   49000    263.95019   0.25929164    2.0602045 0.0076175022        0.125    11.600249 0.0042987488    116.63509    8173.5927 
   49100     264.3783   0.25973417    2.0635703 0.0076175022        0.125    11.707276 0.0042596567    116.43231    8172.7215 
   49200    264.80254   0.25943007    2.0668775 0.0076175022        0.125    11.813387 0.0042215876    116.81616    8171.7958 
   49300    265.22268   0.25929507    2.0702333 0.0076175022        0.125    12.031582 0.0041449071    117.48257    8170.7767 
   49400    265.63796   0.25785242    2.0735044 0.0076175022        0.125    12.009503 0.0041554646    119.20089    8169.5223 
   49500    266.05193   0.25941229    2.0757649 0.0076175022        0.125    12.113397 0.0041199184    117.29064    8168.5319 
   49600    266.46133   0.25887596    2.0790686 0.0076175022        0.125     12.24569 0.0040724274     117.5707     8167.503 
   49700    266.86707   0.26008282    2.0811387 0.0076175022        0.125    12.347124 0.0040391434     116.6555    8166.6026 
   49800    267.26957   0.25981947    2.0846635 0.0076175022        0.125    12.436548 0.0040098707    116.97573    8165.6575 
   49900    267.66899   0.26016118    2.0877772 0.0076175022        0.125    12.621417 0.0039517397    117.65041    8164.6194 
   50000    268.14787    0.2593692    2.0917691 0.0076175022        0.125    8.7659017  0.004829067    115.82169     8163.837 
   50100    268.62849   0.25993785    2.0948829 0.0076175022        0.125    8.8909418 0.0047717404    115.73045    8163.0673 
   50200    269.13562   0.25965607    2.0985581 0.0076175022        0.125    8.4667155 0.0053497273    117.25117    8162.0851 
   50300    269.66822    0.2597451    2.1028699 0.0076175022        0.125    8.5849308 0.0052962372    114.80041    8161.4472 
   50400    270.19555   0.25932491    2.1065635 0.0076175022        0.125    8.7167638 0.0052452764    115.75494    8160.6731 
   50500    270.71781   0.25924656    2.1100989 0.0076175022        0.125    8.8508635 0.0051949065    117.01914    8159.7231 
   50600    271.23507   0.25852016    2.1131933 0.0076175022        0.125    8.9956699 0.0051455059    115.07825    8159.0439 
   50700    271.74743   0.25844742    2.1171572 0.0076175022        0.125    9.1168085 0.0050970633    116.35931    8158.1848 
   50800    272.25243   0.25962558    2.1206256 0.0076175022        0.125    8.5170144 0.0054196835    116.07269    8157.3654 
   50900    272.79525   0.25906433    2.1246376 0.0076175022        0.125    8.6129277 0.0054058435     116.8668    8156.4367 
   51000    273.33125   0.25890728     2.128105 0.0076175022        0.125    8.7629666 0.0053271542    113.35427    8156.0016 
   51100    273.85985   0.25937576    2.1311056 0.0076175022        0.125    8.8604778 0.0052481007    116.70003    8155.0952 
   51200    274.37814   0.25907529    2.1346363 0.0076175022        0.125     9.356167 0.0051129451    119.27025    8153.8467 
   51300    274.88811   0.26065698    2.1372371 0.0076175022        0.125    9.4657567 0.0050659172    116.00065    8153.0368 
   51400    275.39198    0.2601167    2.1408102 0.0076175022        0.125    9.6121506  0.004997427    116.30317    8152.1854 
   51500     275.8897   0.25904792    2.1441676 0.0076175022        0.125    9.7120985  0.004951398    117.21473    8151.2108 
   51600    276.37983   0.25877566    2.1476977 0.0076175022        0.125    9.8451382  0.004838773    116.57933    8150.3221 
   51700    276.88599   0.25880494     2.151132 0.0076175022        0.125    9.5878945 0.0052010071     118.8706    8149.1303 
   51800    277.40623   0.25884232    2.1546851 0.0076175022        0.125    8.5556823 0.0052436898    120.11778    8147.7799 
   51900     277.9308   0.25841269    2.1583892 0.0076175022        0.125    8.6915935 0.0052482507    122.84078    8146.0944 
   52000    278.45485    0.2585356     2.161061 0.0076175022        0.125    8.7694242 0.0051570488     118.8248    8144.9139 
   52100    278.98722   0.25770889    2.1644414 0.0076175022        0.125     8.904538  0.005367649    115.65026    8144.1549 
   52200    279.52089   0.25634715    2.1683435 0.0076175022        0.125    9.0352849 0.0053059425    116.45662    8143.2869 
   52300    280.04831   0.25785153    2.1717428 0.0076175022        0.125    9.1662456 0.0052359204    115.94553    8142.4874 
   52400    280.56884   0.25787405    2.1754643 0.0076175022        0.125    9.2963774 0.0051682797     116.6265    8141.5966 
   52500    281.07963   0.25827011    2.1787348 0.0076175022        0.125    9.4275623 0.0050201675    118.07032    8140.5168 
   52600    281.57902   0.25844746     2.182292 0.0076175022        0.125    9.5503322 0.0049653765    116.45888    8139.6489 
   52700    282.07383   0.25937616    2.1851263 0.0076175022        0.125    9.6740346 0.0049246169    115.72131    8138.8794 
   52800    282.56434    0.2590659    2.1883277 0.0076175022        0.125    9.7955206 0.0048788795    117.12772    8137.9234 
   52900    283.05237   0.25812634    2.1914014 0.0076175022        0.125    9.0677814 0.0052444353    118.60455    8136.7775 
   53000    283.57376   0.25886198    2.1941031 0.0076175022        0.125    9.1981292  0.005177069     114.9634    8136.1098 
[...]
  985300    4900.5086   0.25727085    31.735092 0.0076175022        0.125    7.5003102 0.0065543411    109.71708    134.57623 
  985400    4901.1619   0.25711816    31.738903 0.0076175022        0.125    7.6478084 0.0064746145    110.34422    133.66061 
  985500    4901.8127   0.25670843    31.742672 0.0076175022        0.125    7.2198506 0.0065568774    109.15591    132.74513 
  985600    4902.4695   0.25676293    31.746871 0.0076175022        0.125    7.3854431 0.0065755192    107.99251     131.8298 
  985700    4903.1213   0.25717555     31.75082 0.0076175022        0.125    7.5479543 0.0064081664      107.697    130.91451 
  985800    4903.7338   0.25782121    31.753946 0.0076175022        0.125    7.7968204 0.0057884328    108.94172    129.99906 
  985900    4904.3148   0.25769994    31.756631 0.0076175022        0.125     7.947013 0.0057792797    109.43505    129.08354 
  986000    4904.8967   0.25758616    31.760599 0.0076175022        0.125    8.0248945  0.005879663    108.52001    128.16814 
  986100    4905.4847   0.25793284    31.764087 0.0076175022        0.125    8.1718969 0.0057428447    110.19842    127.25254 
  986200    4906.0371   0.25728088    31.767624 0.0076175022        0.125    8.3098739 0.0055350565    108.07084     126.3372 
  986300     4906.628   0.25626317    31.771075 0.0076175022        0.125    8.4574439  0.005902044     109.1161    125.42172 
  986400    4907.2053   0.25778198    31.774031 0.0076175022        0.125    8.6033891 0.0056812101    109.08718    124.50625 
  986500    4907.7699   0.25761475    31.777525 0.0076175022        0.125    8.7580822 0.0056019828    107.26668    123.59099 
  986600    4908.3266   0.25763595    31.780198 0.0076175022        0.125    8.6482327 0.0055272841    108.25533    122.67562 
  986700     4908.876   0.25823782    31.783518 0.0076175022        0.125    8.7846456 0.0054534427    108.63897    121.76019 
  986800    4909.4174   0.25731592    31.786792 0.0076175022        0.125    8.5190565 0.0053781312    107.42421    120.84491 
  986900    4909.9707   0.25658948     31.79049 0.0076175022        0.125    7.5177652 0.0056178509    110.17729    119.92931 
  987000    4910.5302   0.25821569    31.793657 0.0076175022        0.125    7.8902228 0.0055668488    106.03622    119.01419 
  987100    4911.0846   0.25735546    31.797122 0.0076175022        0.125    7.9805378 0.0055163092    107.20447    118.09892 
  987200     4911.634   0.25678261    31.801048 0.0076175022        0.125     8.117882 0.0054663235    107.10364    117.18366 
  987300    4912.1783   0.25774285    31.804756 0.0076175022        0.125    8.2539732 0.0054139428    107.75328    116.26832 
  987400    4912.7153   0.25890717    31.808238 0.0076175022        0.125     8.388215  0.005323699     107.8316    115.35298 
  987500    4913.2822   0.25758943    31.812538 0.0076175022        0.125    8.5293576   0.00577452    108.31502    114.43757 
  987600    4913.8551   0.25687672    31.816326 0.0076175022        0.125    8.6834945 0.0056730669    106.89447    113.52233 
  987700    4914.4305   0.25750747    31.819744 0.0076175022        0.125     7.405343  0.006019481    109.26226    112.60682 
  987800    4915.0391   0.25653328     31.82361 0.0076175022        0.125    7.5575052  0.005844169    110.15122    111.69122 
  987900    4915.6417   0.25754133    31.827318 0.0076175022        0.125    7.7934741 0.0060062458    108.83122    110.77576 
  988000    4916.2384   0.25742193    31.831527 0.0076175022        0.125    7.9083822 0.0059202008     106.0352    109.86059 
  988100    4916.8255   0.25766163    31.835046 0.0076175022        0.125    8.0390466 0.0060040477    108.83051    108.94513 
  988200    4917.4222   0.25689881    31.838682 0.0076175022        0.125    8.1605748 0.0059229132     109.2125    108.02963 
  988300    4918.0101   0.25733861    31.842319 0.0076175022        0.125    8.3075343 0.0058248318    107.46635     107.1143 
  988400    4918.5883   0.25828629    31.845003 0.0076175022        0.125    8.4569242 0.0057289671    107.19951    106.19899 
  988500    4919.1567   0.25865366    31.848826 0.0076175022        0.125    8.6227132 0.0056258112    106.93276    105.28372 
  988600     4919.707    0.2577899    31.852895 0.0076175022        0.125    8.8977406 0.0053249455    108.40426    104.36828 
  988700     4920.241   0.25710171    31.856274 0.0076175022        0.125    8.6770139  0.005737012    108.55029    103.45284 
  988800    4920.8296   0.25828321    31.860075 0.0076175022        0.125    8.2652209 0.0058725976    108.96962    102.53735 
  988900     4921.413   0.25834385    31.863846 0.0076175022        0.125    8.3940114 0.0057887724    108.30752    101.62193 
  989000    4921.9876   0.25849305     31.86739 0.0076175022        0.125     7.836711 0.0056684683    107.60693    100.70657 
  989100    4922.5551   0.25732437     31.87082 0.0076175022        0.125    7.9821825 0.0056383791    110.05968    99.790977 
  989200    4923.1164   0.25706933    31.873811 0.0076175022        0.125    8.1070292 0.0055818965    108.07959     98.87557 
  989300    4923.6857   0.25820046    31.877346 0.0076175022        0.125    8.2660589 0.0060011254    108.71291    97.960102 
  989400    4924.2821   0.25809755    31.881325 0.0076175022        0.125    8.4082164 0.0056828188    107.71567    97.044725 
  989500    4924.8579   0.25789757    31.884639 0.0076175022        0.125    8.5645389 0.0057408097     110.5307    96.129094 
  989600    4925.4278   0.25837699    31.888736 0.0076175022        0.125    8.7070216 0.0056527804    107.90839    95.213697 
  989700    4925.9893   0.25815442    31.892621 0.0076175022        0.125    8.8482317 0.0055660736    109.16211    94.298186 
  989800    4926.5437   0.25790395    31.896121 0.0076175022        0.125    8.9896346 0.0055096871    108.54332    93.382729 
  989900     4927.091   0.25854242    31.899589 0.0076175022        0.125    9.1277475 0.0054291041    107.50111    92.467362 
  990000    4927.6304   0.25865526    31.903559 0.0076175022        0.125    9.2625944 0.0053514351    105.77309    91.552146 
  990100    4928.1623   0.25916922    31.906875 0.0076175022        0.125    9.3907702 0.0052796021    107.62421    90.636761 
  990200    4928.6868   0.25804114    31.910331 0.0076175022        0.125    9.5641701 0.0051876623    107.75826    89.721361 
  990300    4929.2007   0.25875795     31.91333 0.0076175022        0.125    9.7632699  0.005083373     108.0427    88.805936 
  990400    4929.7063   0.25703144    31.917356 0.0076175022        0.125    9.8740084 0.0050237408    107.86812    87.890522 
  990500     4930.206   0.25918434    31.920567 0.0076175022        0.125    9.9869624 0.0049653136    107.50932    86.975136 
  990600    4930.6989   0.25884886    31.924026 0.0076175022        0.125    10.088795 0.0048944652    107.86798    86.059718 
  990700    4931.2212    0.2582499    31.927695 0.0076175022        0.125    8.4195036 0.0056863915      108.766    85.144226 
  990800    4931.7859   0.25795629    31.930912 0.0076175022        0.125    8.5665032 0.0055920976    108.32372    84.228767 
  990900    4932.3364   0.25813515    31.934189 0.0076175022        0.125    8.7839121 0.0054684293    109.75394    83.313197 
  991000    4932.8796   0.25874876    31.937818 0.0076175022        0.125    8.9859053 0.0053730244    107.45916    82.397804 
  991100    4933.4165   0.25843466    31.941207 0.0076175022        0.125    9.0866753 0.0053207025    106.99684    81.482444 
  991200    4933.9528   0.25877747    31.944881 0.0076175022        0.125    9.3493668 0.0053469683    109.51008     80.56689 
  991300     4934.484   0.25842163    31.948713 0.0076175022        0.125    9.4974515 0.0052576114    107.53614    79.651483 
  991400    4935.0059   0.25951365    31.952353 0.0076175022        0.125    9.5063785 0.0051548288    109.38682    78.735937 
  991500    4935.5248    0.2592961    31.955749 0.0076175022        0.125    9.0275599 0.0052020377    110.65717    77.820301 
  991600    4936.0421   0.25848656    31.959094 0.0076175022        0.125    9.1560271 0.0051378126     107.1336     76.90492 
  991700    4936.5535   0.25907838    31.962375 0.0076175022        0.125    9.4985086 0.0050752207    109.55842    75.989362 
  991800    4937.0688   0.25906441    31.965726 0.0076175022        0.125    9.3979136 0.0051772473    110.38525    75.073748 
  991900    4937.5836   0.25896379    31.969253 0.0076175022        0.125    9.5255246 0.0051112874    108.07878    74.158294 
  992000    4938.0909   0.25877382    31.972173 0.0076175022        0.125    8.6467027 0.0050565765    107.25666    73.242895 
  992100    4938.6065   0.25861655    31.975367 0.0076175022        0.125    8.7756007 0.0053433447     107.6175    72.327468 
  992200    4939.1487   0.25922382    31.978701 0.0076175022        0.125    8.9321725 0.0054555943    109.28256    71.411926 
  992300    4939.6918    0.2585259    31.982004 0.0076175022        0.125    9.0758421  0.005385633    109.23961    70.496388 
  992400    4940.2244   0.25818887    31.985313 0.0076175022        0.125    9.2085601 0.0053472324    110.82995    69.580749 
  992500    4940.7557   0.25704024    31.989043 0.0076175022        0.125       9.3414 0.0052702467     108.2802    68.665273 
  992600    4941.2799   0.25865351    31.991933 0.0076175022        0.125    9.4736523 0.0052058502    108.88512    67.749757 
  992700    4941.7974   0.25855662     31.99587 0.0076175022        0.125    9.5876906 0.0052049407    107.87661    66.834304 
  992800    4942.3148   0.25830909    31.999065 0.0076175022        0.125    9.7164796 0.0051361645    107.85103    65.918851 
  992900    4942.8254   0.25797165    32.002368 0.0076175022        0.125    9.8490426 0.0050668327    108.02483    65.003384 
  993000    4943.3293   0.25787819    32.006257 0.0076175022        0.125    9.8150992 0.0050003178    105.86974    64.088048 
  993100    4943.8282   0.25793538     32.00951 0.0076175022        0.125    9.9407729  0.005014893    107.87974    63.172583 
  993200    4944.3269    0.2569028     32.01262 0.0076175022        0.125    10.065446 0.0049531381    107.78651    62.257122 
  993300    4944.8195   0.25805305    32.015856 0.0076175022        0.125    10.189611 0.0048927947    107.49243    61.341676 
  993400    4945.3067   0.25768097    32.019166 0.0076175022        0.125    10.296402 0.0048417717    107.80823    60.426208 
  993500    4945.7884   0.25857546    32.022579 0.0076175022        0.125    10.416816  0.004786126    107.44138    59.510759 
  993600    4946.2635   0.25769437    32.026795 0.0076175022        0.125    10.531624 0.0047386962    109.99832    58.595168 
  993700    4946.7352   0.25852422     32.02971 0.0076175022        0.125    10.645109 0.0046882465    107.16379     57.67973 
  993800    4947.2012   0.25915403     32.03242 0.0076175022        0.125    10.749143 0.0046468188    108.90243    56.764195 
  993900    4947.6637   0.25932148    32.035622 0.0076175022        0.125    10.864689 0.0045974756    107.21299    55.848749 
  994000    4948.1213   0.25789625    32.038753 0.0076175022        0.125    10.979085 0.0045496665     107.0337    54.933309 
  994100    4948.5735   0.25859288    32.041697 0.0076175022        0.125    11.146326  0.004482281    106.27254    54.017905 
  994200     4949.036   0.25957334     32.04492 0.0076175022        0.125    9.9998794 0.0046702787    108.30892    53.102392 
  994300    4949.5007   0.25832668    32.047988 0.0076175022        0.125    10.116832 0.0046193795    107.57014    52.186914 
  994400    4949.9606   0.25893426    32.050582 0.0076175022        0.125    10.228422 0.0045746436    109.52555     51.27134 
  994500    4950.4161   0.25801189    32.054117 0.0076175022        0.125    10.341298 0.0045304294    107.72727    50.355851 
  994600    4950.8673   0.25982097    32.056822 0.0076175022        0.125    10.383296  0.004501984     107.8573    49.440353 
  994700     4951.316   0.25936609    32.059716 0.0076175022        0.125    10.486025 0.0044627968    107.94402    48.524848 
  994800    4951.7591   0.25845988    32.063098 0.0076175022        0.125    10.696836 0.0044013008    108.72357    47.609307 
  994900    4952.1981   0.25861181    32.066562 0.0076175022        0.125    10.750152 0.0043720838    108.53318    46.693773 
  995000    4952.6339   0.25905268    32.069838 0.0076175022        0.125    11.132034 0.0043052586    107.82173    45.778269 
  995100    4953.0622   0.25889781    32.072651 0.0076175022        0.125    12.381055 0.0040158388    109.31386      44.8627 
  995200    4953.4644    0.2588502    32.075391 0.0076175022        0.125    12.393642 0.0040103404    109.87611    43.947108 
  995300    4953.8641   0.25904955    32.078241 0.0076175022        0.125    12.482628  0.003979863    108.14061    43.031587 
  995400    4954.2828   0.25955721     32.08099 0.0076175022        0.125    11.071627 0.0044967475    107.59282    42.116085 
  995500    4954.7424   0.25978514    32.084339 0.0076175022        0.125    9.6283833 0.0046971049     110.2621    41.200479 
  995600    4955.2101   0.25968211    32.088253 0.0076175022        0.125    9.7479872 0.0046508155    108.06617    40.284956 
  995700    4955.6731    0.2589888    32.092067 0.0076175022        0.125    9.8649167 0.0046053767    107.23939    39.369462 
  995800    4956.1316   0.25910222    32.095201 0.0076175022        0.125    9.9983596 0.0045628259    107.14531    38.453968 
  995900     4956.586   0.25817057    32.098274 0.0076175022        0.125    10.108595 0.0045199958    108.36715    37.538427 
  996000    4957.0361   0.25946793    32.101131 0.0076175022        0.125    10.210159  0.004479162    106.84034    36.622938 
  996100    4957.4823   0.25914602    32.104345 0.0076175022        0.125    10.319569 0.0044390632    107.02237    35.707438 
  996200    4957.9244   0.25838757    32.106555 0.0076175022        0.125     10.42972 0.0043995467     107.0649    34.791933 
  996300    4958.3626   0.25826417     32.10926 0.0076175022        0.125    10.539272 0.0043609358    108.09875    33.876391 
  996400    4958.7964   0.25909808    32.111956 0.0076175022        0.125     10.65107 0.0043237903    107.12556    32.960877 
  996500    4959.2339   0.25842013    32.114665 0.0076175022        0.125    10.578847 0.0043469414    110.39516    32.045263 
  996600    4959.6596   0.25988475    32.117447 0.0076175022        0.125    12.133053 0.0040430094    109.74501    31.129669 
  996700    4960.0623   0.25836558    32.120763 0.0076175022        0.125    12.247248 0.0040058822    106.69955    30.214162 
  996800    4960.4611   0.25848791    32.123543 0.0076175022        0.125     12.35995 0.0039690211    108.82021    29.298593 
  996900    4960.8566   0.25862504    32.125763 0.0076175022        0.125    12.459652  0.003938404    107.85358    28.383048 
  997000    4961.2487   0.25948824    32.128522 0.0076175022        0.125     12.57487 0.0039036542    105.62183    27.467559 
  997100    4961.6378   0.25838722    32.131273 0.0076175022        0.125    12.674393  0.003874449    108.26905    26.551997 
  997200    4962.0239   0.25932332    32.133918 0.0076175022        0.125    12.770329 0.0038463058    108.14563    25.636437 
  997300    4962.4072   0.25962371    32.136783 0.0076175022        0.125    12.896936 0.0038137869    107.21803    24.720896 
  997400    4962.7875   0.25963325    32.139324 0.0076175022        0.125    12.986989 0.0037888144    108.79286    23.805317 
  997500    4963.1652   0.25981939     32.14209 0.0076175022        0.125     13.08141 0.0037623203    107.62651    22.889762 
  997600    4963.5402   0.25903483    32.144632 0.0076175022        0.125    13.175175 0.0037363686    106.92524    21.974218 
  997700    4963.9127    0.2597043    32.147187 0.0076175022        0.125    13.268816  0.003711012    108.43492    21.058641 
  997800    4964.2827   0.25962937     32.14972 0.0076175022        0.125    13.360687 0.0036860982    108.17712    20.143068 
  997900    4964.6502    0.2593289     32.15279 0.0076175022        0.125    13.451871 0.0036618261    107.90361    19.227497 
  998000    4965.0153   0.25855976    32.155443 0.0076175022        0.125    13.563742 0.0036325485    107.09905    18.311938 
  998100    4965.3779   0.25948713    32.157862 0.0076175022        0.125    13.570074 0.0036387788    108.74045    17.396349 
  998200     4965.741   0.25938179     32.16006 0.0076175022        0.125    13.638506 0.0036195906    108.29826    16.480766 
  998300    4966.1019   0.25943891    32.162422 0.0076175022        0.125    13.739059 0.0035946504    107.46332    15.565193 
  998400    4966.4605   0.25960415    32.164911 0.0076175022        0.125    13.818573 0.0035752861    108.14482    14.649608 
  998500     4966.817   0.25895595    32.167828 0.0076175022        0.125    13.906463 0.0035532313    108.04818    13.734022 
  998600    4967.1713   0.25966856    32.170219 0.0076175022        0.125     13.99509 0.0035312049    106.77088     12.81845 
  998700    4967.5231   0.25952426    32.172914 0.0076175022        0.125    14.072702 0.0035113843     108.6959    11.902852 
  998800    4967.8723   0.25855194    32.175461 0.0076175022        0.125    14.177478 0.0034808965    107.26884    10.987268 
  998900    4968.2692    0.2583802    32.177881 0.0076175022        0.125    8.7564883  0.004323642    111.52388    10.071642 
  999000    4968.7145   0.25899684    32.180286 0.0076175022        0.125    8.8706353 0.0044806283    107.42649    9.1560533 
  999100    4969.1625    0.2579535    32.182461 0.0076175022        0.125    8.9335066 0.0044800971    107.72043    8.2404595 
  999200    4969.6104   0.25940073    32.185102 0.0076175022        0.125    8.9842196 0.0044786991    109.34364     7.324852 
  999300    4970.0817   0.25869301    32.188162 0.0076175022        0.125    9.1018462  0.004947937    108.45376      6.40925 
  999400    4970.5741   0.25877772    32.190357 0.0076175022        0.125    9.2249364 0.0048941727    107.83437    5.4936499 
  999500    4971.0611   0.25971131    32.193358 0.0076175022        0.125    9.3467005 0.0048419986    107.44278    4.5780492 
  999600     4971.543   0.25832677    32.196886 0.0076175022        0.125    9.4657065 0.0047903656    108.34599    3.6624423 
  999700    4972.0187   0.25929296    32.200075 0.0076175022        0.125    9.7723128  0.004801961    108.77251    2.7468328 
  999800    4972.4993    0.2591424    32.203571 0.0076175022        0.125     9.088325  0.004809423    110.19854    1.8312203 
  999900    4972.9783    0.2590551    32.206864 0.0076175022        0.125    9.2098996 0.0047661992    107.48414    0.9156116 
 1000000     4973.453   0.25802615    32.210658 0.0076175022        0.125    9.3390914 0.0047222619    105.81854            0 
Loop time of 9156.15 on 4 procs for 1000000 steps with 174511 atoms

Performance: 44560.610 tau/day, 109.216 timesteps/s
243.8% CPU use with 1 MPI tasks x 4 OpenMP threads

MPI task timing breakdown:
Section |  min time  |  avg time  |  max time  |%varavg| %total
---------------------------------------------------------------
Pair    | 3501.8     | 3501.8     | 3501.8     |   0.0 | 38.25
Neigh   | 142.05     | 142.05     | 142.05     |   0.0 |  1.55
Comm    | 1219.8     | 1219.8     | 1219.8     |   0.0 | 13.32
Output  | 26.325     | 26.325     | 26.325     |   0.0 |  0.29
Modify  | 3583.1     | 3583.1     | 3583.1     |   0.0 | 39.13
Other   |            | 683.1      |            |       |  7.46

Nlocal:    174511 ave 174511 max 174511 min
Histogram: 1 0 0 0 0 0 0 0 0 0
Nghost:    66644 ave 66644 max 66644 min
Histogram: 1 0 0 0 0 0 0 0 0 0
Neighs:    0 ave 0 max 0 min
Histogram: 1 0 0 0 0 0 0 0 0 0

Total # of neighbors = 0
Ave neighs/atom = 0
Neighbor list builds = 324516
Dangerous builds = 0

Please see the log.cite file for references relevant to this simulation

Total wall time: 2:33:12
