#package gpu 1
#suffix gpu
# variable rho equal 0.03

units lj
atom_style atomic

lattice fcc 0.975
Lattice spacing in x,y,z = 1.60085 1.60085 1.60085
region box block 0 60 0 30 0 30
create_box 2 box
Created orthogonal box = (0 0 0) to (96.0513 48.0256 48.0256)
  1 by 1 by 1 MPI processor grid
create_atoms 1 box
Created 216000 atoms
  Time spent = 0.0628409 secs
mass 1 4.0
mass 2 0.5


pair_style lj/cut 2.5
pair_coeff 1 1 1.0 1.0 2.5
pair_coeff 2 2 0.5 0.88 2.5
pair_coeff 1 2 0.2 1.0 2.5
#pair_coeff 1 2 1.5 0.8 2.5
pair_modify mix geometric
neigh_modify every 1 delay 0 check yes

variable R equal 12
region cylinder1 cylinder x $(0.5*ly) $(0.5*lz) $R EDGE EDGE units box
region cylinder1 cylinder x 24.012813670346833561 $(0.5*lz) $R EDGE EDGE units box
region cylinder1 cylinder x 24.012813670346833561 24.012813670346833561 $R EDGE EDGE units box
region cylinder1 cylinder x 24.012813670346833561 24.012813670346833561 12 EDGE EDGE units box

group cylinder1 region cylinder1
41820 atoms in group cylinder1
variable V equal PI*v_R*v_R*lx
# variable rho equal 0.1
variable natoms equal $V*${rho}
variable natoms equal 43452.5639148185*${rho}
variable natoms equal 43452.5639148185*0.005
variable natoms_in_cylinder equal count(cylinder1)
variable delete_fraction equal (${natoms_in_cylinder}-${natoms})/${natoms_in_cylinder}
variable delete_fraction equal (41820-${natoms})/${natoms_in_cylinder}
variable delete_fraction equal (41820-217.262819574093)/${natoms_in_cylinder}
variable delete_fraction equal (41820-217.262819574093)/41820
set group cylinder1 type 2
  41820 settings made for type
delete_atoms porosity cylinder1 ${delete_fraction} 12345
delete_atoms porosity cylinder1 0.994804810627114 12345
Deleted 41608 atoms, new total = 174392

region cylinder2 cylinder x $(0.5*ly) $(0.5*lz) $(v_R+6) EDGE EDGE units box
region cylinder2 cylinder x 24.012813670346833561 $(0.5*lz) $(v_R+6) EDGE EDGE units box
region cylinder2 cylinder x 24.012813670346833561 24.012813670346833561 $(v_R+6) EDGE EDGE units box
region cylinder2 cylinder x 24.012813670346833561 24.012813670346833561 18 EDGE EDGE units box
region cylinder3 cylinder x $(0.5*ly) $(0.5*lz) $(v_R+9) EDGE EDGE units box
region cylinder3 cylinder x 24.012813670346833561 $(0.5*lz) $(v_R+9) EDGE EDGE units box
region cylinder3 cylinder x 24.012813670346833561 24.012813670346833561 $(v_R+9) EDGE EDGE units box
region cylinder3 cylinder x 24.012813670346833561 24.012813670346833561 21 EDGE EDGE units box
group cylinder2 region cylinder2
54212 atoms in group cylinder2
group cylinder3 region cylinder3
88052 atoms in group cylinder3

group nve region cylinder3
88052 atoms in group nve
group langevin subtract cylinder3 cylinder2
33840 atoms in group langevin
group frozen subtract all cylinder3
86340 atoms in group frozen

region force cylinder x $(0.5*ly) $(0.5*lz) $(v_R-1) EDGE EDGE units box
region force cylinder x 24.012813670346833561 $(0.5*lz) $(v_R-1) EDGE EDGE units box
region force cylinder x 24.012813670346833561 24.012813670346833561 $(v_R-1) EDGE EDGE units box
region force cylinder x 24.012813670346833561 24.012813670346833561 11 EDGE EDGE units box
group gas type 2
212 atoms in group gas

fix nve nve nve
fix langevin langevin langevin 0.50 0.50 1.0 12345 zero yes

variable gascount equal count(gas)

variable dP equal 0.001
variable force equal v_dP/v_rho

velocity all create 0.1 87287
velocity frozen set 0 0 0

compute chunk all chunk/atom bin/cylinder x lower $(lx) $(0.5*ly) $(0.5*lz) 0 $(v_R+3) 80 units box
compute chunk all chunk/atom bin/cylinder x lower 96.051254681387334244 $(0.5*ly) $(0.5*lz) 0 $(v_R+3) 80 units box
compute chunk all chunk/atom bin/cylinder x lower 96.051254681387334244 24.012813670346833561 $(0.5*lz) 0 $(v_R+3) 80 units box
compute chunk all chunk/atom bin/cylinder x lower 96.051254681387334244 24.012813670346833561 24.012813670346833561 0 $(v_R+3) 80 units box
compute chunk all chunk/atom bin/cylinder x lower 96.051254681387334244 24.012813670346833561 24.012813670346833561 0 15 80 units box

compute displacement nve displace/atom
compute mean_displacement nve reduce ave c_displacement[4]

compute vmax all reduce max vx
variable volume equal count(gas)/v_V

thermo_style custom step time temp c_mean_displacement v_volume v_force c_vmax dt spcpu cpuremain
thermo 100

compute keAtom all ke/atom
dump dump all custom 1000 trajectory_l.bin id type x y z c_keAtom

fix flow gas addforce v_force 0.0 0.0
run 5000
No /omp style for force computation currently active
Per MPI rank memory allocation (min/avg/max) = 85.7 | 85.7 | 85.7 Mbytes
Step Time Temp c_mean_displacement v_volume v_force c_vmax Dt S/CPU CPULeft 
       0            0  0.050481823            0 0.0048788836          0.2   0.77453323        0.005            0            0 
     100          0.5  0.065045039  0.054049192 0.0048788836          0.2    1.0036302        0.005    131.40672    37.288809 
     200            1  0.094805973  0.086643985 0.0048788836          0.2    1.8966109        0.005    142.80125    35.070482 
     300          1.5   0.11002569   0.12415172 0.0048788836          0.2    1.8906284        0.005    144.32764    33.748178 
     400            2   0.12254242   0.15622803 0.0048788836          0.2    1.8320226        0.005    143.43664    32.790076 
     500          2.5   0.12965848   0.18501685 0.0048788836          0.2    1.8844457        0.005      144.014    31.911193 
     600            3   0.13453549   0.20128434 0.0048788836          0.2    1.9491338        0.005    141.53918    31.182838 
     700          3.5   0.14086849   0.20079854 0.0048788836          0.2    2.1491338        0.005    139.54124    30.522875 
     800            4   0.14871209   0.18763861 0.0048788836          0.2     2.355193        0.005     140.6292    29.819632 
     900          4.5   0.15545288   0.16637485 0.0048788836          0.2    2.7438443        0.005    140.04719    29.128108 
    1000            5   0.15996891   0.14133455 0.0048788836          0.2     2.780962        0.005    139.31922    28.447004 
    1100          5.5   0.16334477   0.12038827 0.0048788836          0.2    3.1018593        0.005    137.96549    27.784203 
    1200            6    0.1659935   0.10921932 0.0048788836          0.2    3.2424149        0.005    135.20806    27.157875 
    1300          6.5   0.16879305   0.10770345 0.0048788836          0.2    3.4678646        0.005    134.89831    26.518953 
    1400            7   0.17203611   0.11117838 0.0048788836          0.2    3.8765961        0.005    136.51023    25.842899 
    1500          7.5   0.17541386   0.11524559 0.0048788836          0.2     4.071102        0.005     135.8703    25.167362 
    1600            8    0.1802198   0.11856567 0.0048788836          0.2    4.4237066        0.005    133.18147    24.515843 
    1700          8.5   0.18555951   0.12244479 0.0048788836          0.2    4.6081579        0.005    135.39587    23.828799 
    1800            9   0.18974919   0.12775924 0.0048788836          0.2     4.962621        0.005     129.1064    23.199993 
    1900          9.5   0.19486162   0.13543451 0.0048788836          0.2    4.8670174        0.005    133.63197     22.51305 
    2000           10   0.19960941   0.14607387 0.0048788836          0.2    5.0704503        0.005    130.52563    21.846683 
    2100         10.5    0.2017366   0.15897016 0.0048788836          0.2    5.0889321        0.005    130.06626    21.174547 
    2200           11   0.20398799   0.17094379 0.0048788836          0.2    5.2659447        0.005     132.0268    20.479092 
    2300         11.5   0.20611799   0.18000861 0.0048788836          0.2    5.4659447        0.005    128.02899    19.806012 
    2400           12   0.20758496    0.1846668 0.0048788836          0.2    5.6659447        0.005    128.38207    19.121606 
    2500         12.5   0.20931999   0.18537502 0.0048788836          0.2    5.8659447        0.005    128.76822    18.427302 
    2600           13   0.20989535   0.18363824 0.0048788836          0.2    6.0659447        0.005    129.48808    17.722684 
    2700         13.5   0.21215223   0.18002088 0.0048788836          0.2    6.2659447        0.005    129.10389    17.015012 
    2800           14   0.21412416   0.17687379 0.0048788836          0.2    6.4659447        0.005    129.49879    16.300705 
    2900         14.5   0.21570272   0.17441683 0.0048788836          0.2    7.4062093        0.005    128.37017    15.587322 
    3000           15    0.2172883   0.17484007 0.0048788836          0.2    7.4721614        0.005    122.41386    14.894833 
    3100         15.5   0.21933762    0.1773848 0.0048788836          0.2    7.6696308        0.005    125.01752    14.183891 
    3200           16    0.2208765   0.18236338 0.0048788836          0.2    7.4779489        0.005     125.1508     13.46691 
    3300         16.5   0.22227028   0.18927468 0.0048788836          0.2    7.6721222        0.005    125.34345    12.744324 
    3400           17   0.22493653   0.19618438 0.0048788836          0.2    7.8913616        0.005    123.85647     12.02182 
    3500         17.5   0.22697198   0.20281303 0.0048788836          0.2    8.3028357        0.005    121.10058    11.302341 
    3600           18   0.23022089   0.20943863 0.0048788836          0.2     8.483156        0.005    121.62726    10.575566 
    3700         18.5   0.23186361   0.21662786 0.0048788836          0.2    8.6919927        0.005     121.6486    9.8435832 
    3800           19   0.23365088   0.22419003 0.0048788836          0.2    8.8919927        0.005    121.53443    9.1071044 
    3900         19.5   0.23513156   0.23180382 0.0048788836          0.2    9.0989735        0.005    121.52324    8.3662198 
    4000           20   0.23515176   0.24031777 0.0048788836          0.2    9.3079683        0.005    120.51881    7.6229495 
    4100         20.5   0.23659441   0.24803963 0.0048788836          0.2    9.5079683        0.005    120.73751     6.875131 
    4200           21   0.23928413   0.25498807 0.0048788836          0.2    9.7078639        0.005     120.6316    6.1236212 
    4300         21.5   0.23891474   0.26187944 0.0048788836          0.2    9.8963633        0.005    115.27804    5.3747755 
    4400           22    0.2402849   0.26723016 0.0048788836          0.2    9.8448461        0.005    114.28702     4.621564 
    4500         22.5   0.24062203   0.27123752 0.0048788836          0.2    10.085396        0.005    114.64511    3.8626362 
    4600           23   0.24110934   0.27525247 0.0048788836          0.2    10.059584        0.005    114.24406    3.0990474 
    4700         23.5   0.24270073    0.2789136 0.0048788836          0.2    10.289873        0.005    113.07459    2.3312819 
    4800           24   0.24365616   0.28326657 0.0048788836          0.2    10.501043        0.005    114.74811    1.5581205 
    4900         24.5   0.24475765   0.28942323 0.0048788836          0.2    10.701763        0.005    117.41321   0.78054253 
    5000           25   0.24488757   0.29653191 0.0048788836          0.2     10.57178        0.005    115.94617            0 
Loop time of 39.1091 on 4 procs for 5000 steps with 174392 atoms

Performance: 55230.156 tau/day, 127.848 timesteps/s
241.9% CPU use with 1 MPI tasks x 4 OpenMP threads

MPI task timing breakdown:
Section |  min time  |  avg time  |  max time  |%varavg| %total
---------------------------------------------------------------
Pair    | 16.131     | 16.131     | 16.131     |   0.0 | 41.25
Neigh   | 0.42939    | 0.42939    | 0.42939    |   0.0 |  1.10
Comm    | 4.7815     | 4.7815     | 4.7815     |   0.0 | 12.23
Output  | 0.13861    | 0.13861    | 0.13861    |   0.0 |  0.35
Modify  | 14.287     | 14.287     | 14.287     |   0.0 | 36.53
Other   |            | 3.342      |            |       |  8.54

Nlocal:    174392 ave 174392 max 174392 min
Histogram: 1 0 0 0 0 0 0 0 0 0
Nghost:    66627 ave 66627 max 66627 min
Histogram: 1 0 0 0 0 0 0 0 0 0
Neighs:    0 ave 0 max 0 min
Histogram: 1 0 0 0 0 0 0 0 0 0

Total # of neighbors = 0
Ave neighs/atom = 0
Neighbor list builds = 977
Dangerous builds = 0

reset_timestep 0
fix vx all ave/chunk 10 100000 1000000 chunk vx ave running file velocity_l.txt

fix dt all dt/reset 10 NULL NULL 0.05 units box

run 1000000
No /omp style for force computation currently active
Per MPI rank memory allocation (min/avg/max) = 95.07 | 95.07 | 95.07 Mbytes
Step Time Temp c_mean_displacement v_volume v_force c_vmax Dt S/CPU CPULeft 
       0           25   0.24488757   0.29653191 0.0048788836          0.2     10.57178 0.0044451738            0            0 
     100    25.442442   0.24556191   0.30376765 0.0048788836          0.2    10.860901 0.0044268532    107.91991    9265.2138 
     200     25.88307   0.24647519   0.31056961 0.0048788836          0.2    10.968539 0.0043812969    107.55489    9280.0042 
     300     26.30213   0.24887306    0.3168332 0.0048788836          0.2    12.083946 0.0040759416    109.54666    9227.9812 
     400    26.706573   0.24999253   0.32300393 0.0048788836          0.2    12.317906 0.0040113128    109.92452    9193.6712 
     500      27.1055   0.24963869   0.32908829 0.0048788836          0.2    12.475204 0.0039619336    109.12791     9185.997 
     600    27.499505   0.25161024   0.33448846 0.0048788836          0.2    12.632806 0.0039136139    108.69871    9186.6014 
     700    27.888755   0.25073975   0.33991878 0.0048788836          0.2    12.788506 0.0038670082    108.03967     9194.782 
     800    28.273419   0.25203658    0.3455891 0.0048788836          0.2    12.942372 0.0038220178    109.40128    9186.2976 
     900    28.653652    0.2533944   0.35106611 0.0048788836          0.2    13.094465 0.0037785518     110.3709    9170.5812 
    1000    29.029605   0.25306385   0.35758014 0.0048788836          0.2    13.244846 0.0037365265    108.53731    9173.1178 
    1100    29.401417   0.25380986   0.36339165 0.0048788836          0.2    13.393571 0.0036958642    109.93264    9164.4063 
    1200    29.769221   0.25347557   0.36883513 0.0048788836          0.2    13.540693 0.0036564931    109.63758    9159.0327 
    1300    30.133161   0.25483839   0.37375186 0.0048788836          0.2    13.684789 0.0036186918    107.26668     9169.833 
    1400    30.493322   0.25556207   0.37852133 0.0048788836          0.2     13.82984 0.0035800796    107.98926    9174.5077 
    1500    30.823581   0.25616891   0.38238839 0.0048788836          0.2    15.683938  0.003187209    108.46647    9175.7237 
    1600    31.141145   0.25469417   0.38626119 0.0048788836          0.2    15.810964  0.003161615    108.35514    9177.2635 
    1700    31.456177    0.2555507   0.38952106 0.0048788836          0.2    15.936977  0.003136628    108.23636    9179.1084 
    1800    31.768737   0.25632348   0.39279564 0.0048788836          0.2    16.062001 0.0031122242     107.7671    9182.8766 
    1900    32.078882   0.25591913   0.39603943 0.0048788836          0.2    16.186059 0.0030883814     108.0594    9184.8319 
    2000    32.386667   0.25619265   0.39896578 0.0048788836          0.2    16.309173 0.0030650783    106.99616     9191.088 
    2100    32.692151   0.25556786   0.40217895 0.0048788836          0.2    16.429858 0.0030425148    106.81798       9197.4 
    2200    32.995266   0.25685732   0.40564874 0.0048788836          0.2    16.563661 0.0030178787    108.57977    9196.1639 
    2300    33.296374   0.25611987   0.40935294 0.0048788836          0.2    16.650728 0.0030019396    107.43155    9199.2248 
    2400    33.595657   0.25801389   0.41250818 0.0048788836          0.2    16.766068 0.0029812658    107.36434    9202.1954 
    2500    33.892836   0.25734264   0.41641551 0.0048788836          0.2    16.884939 0.0029602906     108.0628    9202.4519 
    2600    34.187938     0.257058   0.42007725 0.0048788836          0.2     17.00298  0.002939752    107.74619    9203.6604 
    2700    34.481004    0.2585546   0.42325639 0.0048788836          0.2    17.120206 0.0029196351    107.10042    9206.7778 
    2800    34.772077   0.25912987   0.42664012 0.0048788836          0.2    17.236636 0.0028999255       107.87    9207.2335 
    2900    35.061197   0.25842106   0.43030427 0.0048788836          0.2    17.352284 0.0028806099    107.43307    9208.8897 
    3000    35.348403   0.25905912    0.4338449 0.0048788836          0.2    17.467166 0.0028616751    105.54069    9215.9208 
    3100    35.633732   0.25959093   0.43737037 0.0048788836          0.2    17.584933 0.0028424544     107.9191    9215.7215 
    3200    35.934657   0.26003009   0.44124346 0.0048788836          0.2    15.117237 0.0030500872    110.13846    9209.6605 
    3300    36.238729   0.26038228   0.44477216 0.0048788836          0.2    15.238866 0.0030293473    109.06148    9206.6197 
    3400    36.540745   0.25937807    0.4485189 0.0048788836          0.2    15.359672 0.0030090014    107.32481    9208.0529 
    3500    36.840743   0.26071346   0.45192014 0.0048788836          0.2    15.479671 0.0029890375    108.86367    9205.6009 
    3600    37.138762   0.25987166   0.45548758 0.0048788836          0.2    15.598879 0.0029694444    108.33684    9204.4706 
    3700    37.434838   0.26083859   0.45858794 0.0048788836          0.2    15.717309  0.002950211    106.95668    9206.5587 
    3800    37.728999   0.26096718   0.46207535 0.0048788836          0.2    15.837865 0.0029296996    107.53498    9207.1696 
    3900    38.020865   0.26098728   0.46533957 0.0048788836          0.2    17.234067 0.0028751106    109.34316    9203.7737 
    4000     38.30796   0.26131417   0.46807161 0.0048788836          0.2    17.335069 0.0028651775    106.85439    9205.8059 
    4100    38.593691   0.26050244   0.47096448 0.0048788836          0.2    17.452736 0.0028475006    106.06569    9209.3836 
    4200    38.877636   0.26109816   0.47323684 0.0048788836          0.2    17.565835  0.002829512    107.92282    9208.8995 
    4300    39.159781   0.26075975   0.47551961 0.0048788836          0.2    17.678693 0.0028116609    107.75084    9208.7372 
    4400    39.440156   0.26133148    0.4779291 0.0048788836          0.2     17.79087 0.0027941448    107.09631    9209.8236 
    4500    39.718794    0.2608416   0.48073462 0.0048788836          0.2    17.902325 0.0027769484    109.50239    9206.2813 
    4600    39.995727   0.26083366   0.48274292 0.0048788836          0.2    18.013098 0.0027600644    107.78812    9205.9963 
    4700    40.270984   0.26089101   0.48450915 0.0048788836          0.2    18.123201 0.0027434837    107.48736    9206.2336 
    4800    40.544598   0.26121044   0.48630359 0.0048788836          0.2    18.232646 0.0027271972    106.89712    9207.4873 
    4900    40.816595   0.26136379   0.48815186 0.0048788836          0.2    18.341445 0.0027111964    107.46299    9207.6514 
    5000    41.087005   0.26109053   0.48971578 0.0048788836          0.2    18.449632 0.0026954661    106.88203    9208.7782 
    5100    41.357139   0.26065469   0.49209572 0.0048788836          0.2    18.433147 0.0027095649     109.4373    9205.5624 
    5200    41.627373   0.26118586   0.49459103 0.0048788836          0.2    18.541743 0.0026937171    107.72799    9205.2089 
    5300    41.896046   0.26105343   0.49668373 0.0048788836          0.2    18.649212 0.0026782273    107.49615    9205.2094 
    5400    42.163181   0.26113067   0.49902292 0.0048788836          0.2    18.756066 0.0026630014    107.55219    9205.0862 
    5500    42.428806   0.26090827   0.50140981 0.0048788836          0.2    18.862316 0.0026480322    107.41117    9205.1544 
    5600    42.692944   0.26046186   0.50360038 0.0048788836          0.2    18.967971 0.0026333126    107.73576    9204.6888 
    5700    42.955622   0.26105844    0.5058567 0.0048788836          0.2    19.073043 0.0026188355    108.43728    9203.1595 
    5800    43.216863    0.2611973   0.50816174 0.0048788836          0.2    19.177539 0.0026045945    106.84581    9204.0057 
    5900     43.47669   0.26127194   0.51010154 0.0048788836          0.2     19.28147 0.0025905833    108.21201    9202.8004 
    6000    43.735102   0.26089493   0.51177446 0.0048788836          0.2    19.396038 0.0025753033    107.28624    9202.9258 
    6100    43.992039   0.26232298    0.5132306 0.0048788836          0.2    19.498187 0.0025618299    106.99569    9203.4288 
    6200    44.287625   0.26167665   0.51538392 0.0048788836          0.2    15.039406  0.003209467    108.07644    9202.3873 
    6300    44.607147   0.26133362    0.5175831 0.0048788836          0.2    15.167214 0.0031724691    107.69363    9201.8682 
    6400    44.928327   0.26132869   0.52001591 0.0048788836          0.2    15.295781 0.0032304301    108.60805    9200.1226 
    6500    45.250134   0.26109697   0.52235776 0.0048788836          0.2    15.421252 0.0032033275    107.39675    9199.9899 
    6600    45.568997   0.26087396   0.52460595 0.0048788836          0.2    15.547667 0.0031690893    107.89651    9199.1837 
    6700    45.894957   0.26133751   0.52738752 0.0048788836          0.2    14.948169 0.0032435528    110.70139    9194.8924 
    6800    46.218568   0.26063919   0.53010123 0.0048788836          0.2    15.077613 0.0032258893    107.81682    9194.2307 
    6900    46.540299   0.26085056    0.5325294 0.0048788836          0.2    15.206306 0.0032065953    108.36539    9192.8856 
    7000    46.859706   0.26107428   0.53462778 0.0048788836          0.2    15.334069 0.0031645094    106.58164    9193.7434 
    7100    47.182966   0.26093694   0.53709544 0.0048788836          0.2    15.463373 0.0032266387    108.48574    9192.2475 
    7200    47.504263   0.26160483   0.53921227 0.0048788836          0.2    15.611604 0.0031966429    108.73453    9190.4769 
    7300    47.822786   0.26177683   0.54158228 0.0048788836          0.2    15.737672 0.0031711267    108.26354    9189.2738 
    7400    48.138773   0.26089683   0.54393387 0.0048788836          0.2    15.863188 0.0031461427    108.38841    9187.9354 
    7500    48.452276   0.26067008   0.54605327 0.0048788836          0.2     15.98859 0.0031215568    106.81273    9188.4091 
    7600    48.763338   0.26122948    0.5477474 0.0048788836          0.2    16.107679 0.0030984001    107.33286    9188.2533 
    7700    49.072119   0.26159763   0.54943634 0.0048788836          0.2    16.232979   0.00307446    108.00923    9187.3255 
    7800     49.37858   0.26101964   0.55162524 0.0048788836          0.2    16.352078 0.0030521249    107.41287    9187.0516 
    7900    49.682778   0.26090527   0.55356722 0.0048788836          0.2    16.473757 0.0030296627    108.55453    9185.5315 
    8000    49.984768   0.26063162   0.55508353 0.0048788836          0.2    16.590441 0.0030083367    107.52202    9185.1233 
    8100    50.284637   0.26086258   0.55641657 0.0048788836          0.2    16.709864 0.0029869044    107.31388     9184.923 
    8200    50.582376   0.26124266   0.55794809 0.0048788836          0.2     16.82896 0.0029658412    109.12729    9182.8321 
    8300    50.878028    0.2606371   0.55980743 0.0048788836          0.2     16.94677  0.002945269    108.42623    9181.4774 
    8400    51.171627    0.2607318    0.5612681 0.0048788836          0.2    17.075768 0.0029231646    107.51475    9181.0559 
    8500    51.462823   0.26112513   0.56290839 0.0048788836          0.2    17.201796 0.0029028934    108.40956     9179.727 
    8600    51.752252   0.26068206   0.56470448 0.0048788836          0.2    17.316596   0.00288369    109.72408    9177.1337 
    8700    52.039764   0.26178924   0.56626962 0.0048788836          0.2     17.43222 0.0028645978    107.79252    9176.4396 
    8800    52.325405   0.26205736   0.56786106 0.0048788836          0.2    17.537335  0.002847135    108.39745    9175.1574 
    8900    52.609269   0.26173833    0.5697687 0.0048788836          0.2    17.652808 0.0028284167    108.12528    9174.1416 
    9000    52.891302   0.26071933   0.57160395 0.0048788836          0.2    17.765676  0.002810114    106.28134    9174.8948 
    9100    53.171493   0.26128833   0.57320998 0.0048788836          0.2    17.876766 0.0027917592    108.29589    9173.7048 
    9200    53.449883   0.26089901   0.57499668 0.0048788836          0.2    17.982988 0.0027736062    108.18307    9172.6244 
    9300      53.7262   0.26042133   0.57680735 0.0048788836          0.2    18.132422 0.0027494221    109.06387     9170.752 
    9400    54.001168   0.26024221   0.57877891 0.0048788836          0.2    18.228692 0.0027398347    111.14396    9167.0917 
    9500    54.274465   0.26000835   0.58072539 0.0048788836          0.2    18.339317 0.0027231287    107.88615     9166.322 
    9600    54.546171   0.26048988   0.58274146 0.0048788836          0.2    18.466018 0.0027039958    110.18728    9163.5523 
    9700    54.816317   0.26030538   0.58490414 0.0048788836          0.2    18.410013  0.002695129    111.84417    9159.4482 
    9800    55.085253   0.26083244    0.5868554 0.0048788836          0.2    18.524233 0.0026817479    107.64079    9158.9376 
    9900    55.352791   0.26093088   0.58865538 0.0048788836          0.2    18.639337 0.0026659837    107.87089    9158.2202 
   10000    55.618891    0.2603105   0.59073448 0.0048788836          0.2    18.727453 0.0026535839    105.67263    9159.4078 
   10100    55.883584   0.26094244    0.5922812 0.0048788836          0.2    18.833417 0.0026388255    108.07725    9158.4896 
   10200    56.146804   0.26095075   0.59392752 0.0048788836          0.2    18.912071 0.0026262877    108.68088    9157.0726 
   10300    56.411227   0.26114628   0.59595688 0.0048788836          0.2     18.52865 0.0026751639    113.63416    9151.8113 
   10400    56.678934      0.26021   0.59808605 0.0048788836          0.2    18.534424 0.0026748646    110.48283    9149.0228 
   10500     56.94574   0.26110719    0.5993273 0.0048788836          0.2    18.641147 0.0026598065    107.49984     9148.637 
   10600    57.211053   0.26112727   0.60109161 0.0048788836          0.2    18.747272 0.0026449985     107.9063    9147.9139 
   10700    57.474895   0.26169967   0.60274141 0.0048788836          0.2    18.852809 0.0026304338    108.13908    9147.0025 
   10800    57.737292   0.26156214   0.60430194 0.0048788836          0.2    18.957768 0.0026161059     106.6967    9147.2359 
   10900    57.998266   0.26063535   0.60633046 0.0048788836          0.2    19.062157 0.0026020083     107.6504    9146.6944 
   11000    58.257841   0.26169096   0.60794313 0.0048788836          0.2    19.165987 0.0025881351    106.85346    9146.7687 
   11100    58.516038   0.26101039   0.60953374 0.0048788836          0.2    19.269266 0.0025744803    106.94891    9146.7504 
   11200     58.77288   0.26165154   0.61115741 0.0048788836          0.2    19.372003 0.0025610383    108.20486    9145.7575 
   11300    59.028386     0.261604    0.6126068 0.0048788836          0.2    19.474205 0.0025478036     107.2723    9145.4689 
   11400    59.282574   0.26069848   0.61412841 0.0048788836          0.2    19.576311 0.0025348591    107.87686    9144.7159 
   11500    59.535481   0.26135601   0.61551157 0.0048788836          0.2    19.677474 0.0025220215    107.52872    9144.2178 
   11600    59.787112   0.26024493   0.61695358 0.0048788836          0.2    19.778948 0.0025092576    107.05709    9144.0614 
   11700    60.037461   0.26001125    0.6184768 0.0048788836          0.2    19.876045 0.0024969265    108.03944    9143.1743 
   11800    60.286593   0.26031775   0.61962525 0.0048788836          0.2    19.975077 0.0024846356    107.39027    9142.7551 
   11900    60.534504   0.26142941   0.62091922 0.0048788836          0.2    20.074278 0.0024725512    108.11689    9141.8077 
   12000     60.78121   0.26013492   0.62275852 0.0048788836          0.2    20.172053 0.0024605533    105.81897    9142.5143 
   12100    61.026737   0.26010793   0.62440084 0.0048788836          0.2    20.270503 0.0024486312    107.30732    9142.1235 
   12200    61.270912   0.26071011   0.62608018 0.0048788836          0.2    20.369369 0.0024346774    108.50354    9140.8919 
   12300    61.513727   0.25895689   0.62813216 0.0048788836          0.2    20.467497 0.0024196423    107.83822    9140.1221 
   12400    61.765271   0.26071787   0.62971882 0.0048788836          0.2    13.836662 0.0025687183    110.13881    9137.8068 
   12500    62.022121   0.25941808   0.63162972 0.0048788836          0.2    13.940999 0.0025658391    110.15012    9135.5069 
   12600    62.278452   0.25937306   0.63337465 0.0048788836          0.2    14.043051 0.0025602225    108.22781    9134.4927 
   12700     62.53415   0.26055994   0.63465441 0.0048788836          0.2     14.14533 0.0025620472    107.42569    9134.0161 
   12800    62.835064   0.26102987   0.63656377 0.0048788836          0.2    14.266217 0.0031169482    110.89805    9131.2845 
   12900    63.146491   0.26056455   0.63877525 0.0048788836          0.2    14.387356 0.0031109732    109.08491    9129.7282 
   13000    63.457314   0.25999697     0.641025 0.0048788836          0.2     13.31665 0.0031048587    106.69877    9129.7382 
   13100    63.767518   0.25998562   0.64297368 0.0048788836          0.2    13.436358  0.003097885    108.67486    9128.4499 
   13200    64.105218   0.25980339    0.6452276 0.0048788836          0.2    13.574239 0.0036528949    109.27792    9126.7875 
   13300    64.468832   0.26101272   0.64738437 0.0048788836          0.2    13.718457 0.0036155211    107.97072    9125.9583 
   13400    64.828692   0.26117158   0.64979914 0.0048788836          0.2     13.86761 0.0035771369    109.30073    9124.2979 
   13500    65.184453   0.26086803   0.65177797 0.0048788836          0.2    13.963489 0.0035436258    110.05494    9122.1903 
   13600    65.537494   0.26027076   0.65410047 0.0048788836          0.2    14.018228 0.0035235022    107.83345    9121.4581 
   13700    65.889376   0.26090182   0.65642463 0.0048788836          0.2    14.093243 0.0035002532    110.04273    9119.3826 
   13800     66.23801    0.2607236   0.65873499 0.0048788836          0.2    14.203688 0.0034680874    108.45376    9118.2756 
   13900    66.582204   0.25987653   0.66063368 0.0048788836          0.2    11.984859 0.0040179162    109.50419    9116.5437 
   14000    66.981771   0.25964719   0.66309682 0.0048788836          0.2    12.140145 0.0039699103    107.06132     9116.291 
   14100     67.37666   0.25947789    0.6654786 0.0048788836          0.2    12.296277 0.0039229862    106.98243    9116.0768 
   14200    67.766883   0.25991249   0.66765758 0.0048788836          0.2    12.452367 0.0038771568    108.41449    9114.9953 
   14300    68.151072   0.26034014    0.6697198 0.0048788836          0.2    13.042607 0.0038051779    110.11759    9112.9326 
   14400    68.529641   0.25939855   0.67202578 0.0048788836          0.2    13.194035 0.0037621399    107.48678    9112.4074 
   14500    68.903971   0.26178092   0.67332257 0.0048788836          0.2    13.343767 0.0037205238    107.65098    9111.7802 
   14600    69.274201   0.26166158   0.67530611 0.0048788836          0.2    13.491859 0.0036802531    107.77092    9111.0789 
   14700    69.640461   0.26077453   0.67752269 0.0048788836          0.2    13.638469 0.0036412329    109.05232    9109.6438 
   14800    70.002878   0.26066749   0.67954542 0.0048788836          0.2    13.783478 0.0036035323    107.50769    9109.0927 
   14900    70.361573   0.26019602   0.68191759 0.0048788836          0.2    13.926956 0.0035668901    108.52097    9107.9624 
   15000    70.716653   0.26007539   0.68406042 0.0048788836          0.2    14.068988 0.0035313393    107.03796    9107.6732 
   15100    71.068226   0.25911826   0.68599757 0.0048788836          0.2    14.209617 0.0034968266    107.55001    9107.0853 
   15200    71.416339   0.26001901    0.6871835 0.0048788836          0.2     14.35764 0.0034628526    108.06372    9106.2066 
   15300    71.761228   0.25947846   0.68897286 0.0048788836          0.2    14.492114 0.0034311355    108.36654    9105.1608 
   15400    72.102907   0.26009167   0.69038367 0.0048788836          0.2    14.628786 0.0033994271    108.20966    9104.2022 
   15500    72.441455   0.25998058   0.69258655 0.0048788836          0.2    14.764205  0.003368579    109.00298    9102.8168 
   15600    72.776955   0.25989201   0.69475807 0.0048788836          0.2    14.898405 0.0033385532    108.30492    9101.8105 
   15700    73.109486   0.26017773   0.69650345 0.0048788836          0.2    15.032423 0.0033091729    108.30612    9100.8046 
   15800    73.438612   0.25979527   0.69856724 0.0048788836          0.2    15.207262 0.0032721403    107.36629    9100.3033 
   15900    73.764581   0.26004273   0.70069283 0.0048788836          0.2     15.33765 0.0032445862    108.13944    9099.3843 
   16000    74.087842   0.26059884   0.70278933 0.0048788836          0.2    15.465078 0.0032181115    107.67646    9098.7099 
   16100    74.408468   0.25933583   0.70518574 0.0048788836          0.2    15.593328 0.0031918852    108.85006    9097.4203 
   16200    74.726472   0.25940096   0.70705458 0.0048788836          0.2    15.730035 0.0031643455    108.02041    9096.5639 
   16300    75.042079   0.26034656    0.7088282 0.0048788836          0.2    15.832852 0.0031438864    107.24964    9096.1081 
   16400    75.355362   0.25996769   0.71099362 0.0048788836          0.2    15.958165 0.0031194162    108.32993    9095.0888 
   16500    75.666223   0.26103097   0.71261801 0.0048788836          0.2    16.082509 0.0030955071    108.56642    9093.9508 
   16600    75.974718   0.26014235   0.71431145 0.0048788836          0.2    16.205907 0.0030721381     107.6241    9093.2932 
   16700      76.2809   0.26042637   0.71628365 0.0048788836          0.2     16.32838 0.0030492892    107.64852      9092.62 
   16800    76.584303   0.26017343   0.71827417 0.0048788836          0.2    16.502753 0.0030188971    108.33239    9091.6005 
   16900    76.885188   0.26030182   0.71969472 0.0048788836          0.2    16.634179 0.0029945838    108.60499    9090.4474 
   17000    77.183848   0.26098617   0.72080527 0.0048788836          0.2    16.733945 0.0029749795    107.42847      9089.88 
   17100    77.480149   0.26107448   0.72227711 0.0048788836          0.2    16.853305 0.0029485263     107.6169    9089.2148 
   17200    77.774149   0.26084175   0.72397113 0.0048788836          0.2    16.848158 0.0029456036    109.80359    9087.4891 
   17300    78.078608   0.26111518   0.72544705 0.0048788836          0.2    9.8044348 0.0030900083    111.65139    9084.9167 
   17400    78.386981   0.25959941   0.72733003 0.0048788836          0.2    9.9294782 0.0030759423    107.63662    9084.2501 
   17500    78.693937   0.25995982   0.72882653 0.0048788836          0.2     10.05226 0.0030617603    107.65792    9083.5702 
   17600    78.999402   0.25962485   0.73071817 0.0048788836          0.2    10.184774 0.0030443526    108.20671    9082.6244 
   17700    79.303695   0.26000194   0.73268472 0.0048788836          0.2    10.293916  0.003036094    110.19283    9080.7546 
   17800    79.606623   0.25936892   0.73478205 0.0048788836          0.2    10.419519 0.0030100916    108.49366    9079.6797 
   17900    79.972763   0.26003025   0.73632894 0.0048788836          0.2    10.436762 0.0036549984    112.32749    9076.8807 
   18000    80.338432   0.25963727   0.73800278 0.0048788836          0.2     10.58303 0.0036586906    112.19871    9074.1585 
   18100    80.704452     0.259544   0.74006306 0.0048788836          0.2     10.72964 0.0036619766    112.42257    9071.3603 
   18200    81.091916   0.25992413   0.74198404 0.0048788836          0.2    10.889053  0.004520788    110.96204    9069.2146 
   18300    81.543422   0.26029125   0.74462871 0.0048788836          0.2    10.511818 0.0047384601    110.58779    9067.2462 
   18400    82.029321   0.25880948   0.74814304 0.0048788836          0.2    9.5231085 0.0050477155    111.32648    9064.9692 
   18500    82.532066   0.25886808   0.75168399 0.0048788836          0.2    9.7242065 0.0050175464    108.04351    9064.1553 
   18600    83.029998   0.25941064   0.75410976 0.0048788836          0.2    9.9233795 0.0049555402    104.76164    9064.8699 
   18700    83.521314   0.25916999   0.75679861 0.0048788836          0.2    10.121851 0.0048613602    104.15668    9065.8577 
   18800    84.002689   0.26021502   0.75983444 0.0048788836          0.2    10.333047 0.0047655179    107.91341    9065.0803 
   18900    84.474587   0.25953997   0.76328704 0.0048788836          0.2      10.4864 0.0046672191    107.17411    9064.6332 
   19000    84.936432   0.26026134   0.76597287 0.0048788836          0.2    10.705815 0.0045481266    107.91958    9063.8482 
   19100    85.411903   0.26038349   0.76863904 0.0048788836          0.2    9.7727805 0.0047210013    110.66391    9061.8816 
   19200    85.881209   0.25913064   0.77236861 0.0048788836          0.2    9.9699412 0.0046575415    107.29211    9061.3767 
   19300    86.343579   0.25931257   0.77569964 0.0048788836          0.2    10.161249 0.0045835593    107.33137    9060.8501 
   19400    86.798656   0.25946871   0.77884784 0.0048788836          0.2    10.367677 0.0045081055    107.23859    9060.3601 
   19500    87.246498   0.25976238   0.78143408 0.0048788836          0.2     10.54875  0.004441103    107.34728     9059.818 
   19600    87.690455   0.26020873   0.78417176 0.0048788836          0.2    10.178007 0.0045721406    108.38289    9058.8267 
   19700     88.14708   0.25943226   0.78720578 0.0048788836          0.2    10.339431 0.0045329286    108.81747    9057.6528 
   19800     88.59727   0.26024457   0.78981294 0.0048788836          0.2    10.519507 0.0044645369    107.85159    9056.8888 
   19900    89.040753   0.25963265   0.79309311 0.0048788836          0.2      10.6969 0.0043990235    107.49347    9056.2754 
   20000    89.477807   0.25989323    0.7960605 0.0048788836          0.2    10.871721 0.0043361977    108.06945    9055.4158 
   20100    89.946956   0.26024099   0.79896457 0.0048788836          0.2    9.5987987  0.005036991    107.26484     9054.894 
   20200    90.446491   0.26028587    0.8024517 0.0048788836          0.2    9.8067468 0.0049453185    107.34231    9054.3355 
   20300    90.937067   0.26070245   0.80525982 0.0048788836          0.2     9.989278 0.0048582099    107.88021    9053.5491 
   20400    91.419124   0.25995157    0.8086876 0.0048788836          0.2    10.205397 0.0047750608    108.32441    9052.5788 
   20500    91.893051   0.26091098   0.81180409 0.0048788836          0.2    10.394723 0.0046962417    108.56324     9051.512 
   20600    92.354623   0.26150632   0.81437956 0.0048788836          0.2    11.010167 0.0044788817     109.1035    9050.2296 
   20700    92.799306   0.26042524   0.81783649 0.0048788836          0.2    11.190559 0.0044088477    108.51695    9049.1853 
   20800    93.237207   0.26104955   0.82111195 0.0048788836          0.2    11.366105 0.0043429353    107.64529    9048.4933 
   20900    93.655116   0.25975442   0.82465454 0.0048788836          0.2     11.53279 0.0042819489    110.07626     9046.838 
   21000    94.080554   0.26134261   0.82773531 0.0048788836          0.2    11.702996  0.004221178      107.739    9046.1086 
   21100     94.50003   0.26052257   0.83067975 0.0048788836          0.2    11.870786 0.0041629058    106.53418    9045.8643 
   21200    94.913785   0.25993951   0.83347677 0.0048788836          0.2    12.036288 0.0041069653    108.09945    9044.9859 
   21300    95.333474   0.26004529   0.83604999 0.0048788836          0.2    10.878035 0.0041973349    108.43223    9043.9766 
   21400    95.768004    0.2613867   0.83862232 0.0048788836          0.2    10.862996 0.0045192932    110.02385    9042.3581 
   21500     96.21983   0.26182832    0.8422823 0.0048788836          0.2    11.043726 0.0044909999    107.40976    9041.7528 
   21600    96.665741   0.26043442   0.84602235 0.0048788836          0.2    11.222091 0.0044207379    108.47575    9040.7302 
   21700    97.104771   0.26026429   0.84862068 0.0048788836          0.2    11.397703 0.0043536592    107.74074     9039.992 
   21800    97.537228   0.26004592   0.85168309 0.0048788836          0.2    11.570685 0.0042895312    108.36749    9039.0111 
   21900    97.963399   0.26077405   0.85421383 0.0048788836          0.2    11.740985 0.0042280538    108.36606    9038.0314 
   22000    98.383537   0.26160764   0.85682111 0.0048788836          0.2    11.909376 0.0041690818    106.90159    9037.6142 
   22100    98.797884   0.26150128   0.85968566 0.0048788836          0.2     12.07117 0.0041133026    106.61491    9037.3035 
   22200    99.206731   0.26107933   0.86280655 0.0048788836          0.2    12.235926 0.0040586195    107.25644    9036.7401 
   22300    99.609837   0.26053286   0.86576919 0.0048788836          0.2    12.534256 0.0039584823    107.09208    9036.2362 
   22400    99.994192   0.26089534   0.86857845 0.0048788836          0.2    13.079074 0.0037664807    111.02178    9034.2859 
   22500    100.36904   0.26123621   0.87125326 0.0048788836          0.2     13.22588 0.0037261611    107.63267    9033.5771 
   22600    100.73984   0.26126652   0.87360358 0.0048788836          0.2    13.374199 0.0036859978    108.55195    9032.5261 
   22700    101.10668   0.26110317   0.87587856 0.0048788836          0.2    13.520935 0.0036470945    110.08669    9030.9233 
   22800    101.46968   0.26056158   0.87840487 0.0048788836          0.2    13.666136 0.0036093869    108.02461    9030.0698 
   22900    101.82896   0.26061312   0.88058695 0.0048788836          0.2    13.812031 0.0035722466    108.67297      9028.98 
   23000    102.18457   0.26077647   0.88275023 0.0048788836          0.2    13.955031 0.0035367363     106.5295    9028.6782 
   23100    102.53668   0.26197413   0.88486159 0.0048788836          0.2    14.095877 0.0035022895    106.16309    9028.5079 
   23200    102.88951   0.26074415   0.88761038 0.0048788836          0.2    12.852561 0.0038837704    108.69353    9027.4076 
   23300    103.27342   0.26061594   0.89027886 0.0048788836          0.2    12.861034  0.003586683     107.3641    9026.7864 
   23400    103.63141   0.26075529   0.89246394 0.0048788836          0.2    12.979401 0.0035624894    108.90079     9025.614 
   23500    103.98617   0.26106646   0.89480915 0.0048788836          0.2    13.121261 0.0035294702      108.227    9024.6814 
   23600    104.33766     0.260693   0.89737535 0.0048788836          0.2    13.261858  0.003497297     108.0623    9023.8071 
   23700    104.68597   0.26177226     0.899786 0.0048788836          0.2    13.401183 0.0034659426     108.1956    9022.8854 
   23800    105.03118   0.26039606   0.90255523 0.0048788836          0.2    13.539268 0.0034353742    108.06138    9022.0107 
   23900    105.37337   0.26136642   0.90533626 0.0048788836          0.2    13.676144 0.0034055606    108.09106    9021.1253 
   24000    105.71261   0.26007972    0.9081578 0.0048788836          0.2    13.813502 0.0033758374     107.3066    9020.5146 
   24100    106.04878   0.25980846   0.91068653 0.0048788836          0.2    13.932998 0.0033463315    107.23229    9019.9273 
   24200    106.38202   0.26058386   0.91294219 0.0048788836          0.2    14.067581 0.0033068238    107.14107    9019.3692 
   24300    106.71837   0.26003834    0.9153166 0.0048788836          0.2    14.539451 0.0033560071    110.15594    9017.7824 
   24400    107.05268   0.26084814   0.91741795 0.0048788836          0.2    14.673798 0.0033272657    108.34118    9016.8091 
   24500    107.38412   0.26106926   0.91976124 0.0048788836          0.2    14.806375 0.0032988409    107.96199    9015.9653 
   24600    107.71275   0.26042252   0.92262319 0.0048788836          0.2    14.937827 0.0032711215    107.59432    9015.2463 
   24700    108.03866   0.26133765   0.92475653 0.0048788836          0.2    15.065342 0.0032444641    107.29121    9014.6293 
   24800    108.36192   0.26060401      0.92722 0.0048788836          0.2    15.194644  0.003218064    107.84135    9013.8228 
   24900    108.68256   0.26082113   0.92987681 0.0048788836          0.2      15.3229 0.0031922888     108.1087    9012.9255 
   25000    109.00065   0.26171376   0.93195111 0.0048788836          0.2    15.450137 0.0031671145    106.83395    9012.4584 
   25100    109.31625   0.26145264   0.93408489 0.0048788836          0.2    15.576674 0.0031423886    106.32178    9012.1627 
   25200    109.62936   0.26223308   0.93592878 0.0048788836          0.2     15.71365 0.0031164787    107.30938    9011.5271 
   25300    109.93996   0.26064464   0.93802705 0.0048788836          0.2     15.83709 0.0030932099    108.96606    9010.3433 
   25400    110.24824   0.26164333   0.93997796 0.0048788836          0.2    15.960491 0.0030705562    108.39827    9009.3461 
   25500    110.55435   0.26149432   0.94240855 0.0048788836          0.2    16.079754 0.0030489302     107.0909    9008.7798 
   25600    110.85823   0.26115377   0.94488869 0.0048788836          0.2    16.202715 0.0030268011    108.53347    9007.7382 
   25700    111.15995   0.26021182   0.94707028 0.0048788836          0.2    16.321638 0.0030055669    108.23915    9006.7926 
   25800    111.45956    0.2608528   0.94880916 0.0048788836          0.2    16.441479 0.0029844704    107.48783    9006.0909 
   25900    111.75707    0.2615878    0.9506271 0.0048788836          0.2    16.560485 0.0029638066    107.85228    9005.2693 
   26000    112.05254   0.26093817   0.95263425 0.0048788836          0.2    16.678671  0.002943561    107.28094    9004.6319 
   26100    112.34599   0.26164242   0.95447587 0.0048788836          0.2    16.793463 0.0029237158    106.86582    9004.1272 
   26200    112.63734   0.26160198   0.95682025 0.0048788836          0.2    16.908336 0.0029018956    108.00953     9003.251 
   26300    112.92824     0.260388   0.95891233 0.0048788836          0.2    16.529738 0.0029050249    108.53215    9002.2094 
   26400    113.21848   0.26118421   0.96058414 0.0048788836          0.2    16.647719  0.002894291    110.64923    9000.5185 
   26500    113.50711   0.26263595    0.9617369 0.0048788836          0.2    16.761486 0.0028761635    109.36371    8999.2239 
   26600    113.79396   0.26035241   0.96357402 0.0048788836          0.2    16.029038 0.0028952763     109.5295    8997.8814 
   26700    114.08319    0.2607106   0.96557341 0.0048788836          0.2    16.125883 0.0028832799    108.94992    8996.7193 
   26800    114.37072   0.26058338   0.96749379 0.0048788836          0.2    16.240895 0.0028655981    109.11621    8995.5081 
   26900    114.65649   0.26146136   0.96939567 0.0048788836          0.2    16.352289 0.0028482781     109.2137    8994.2695 
   27000    114.94055   0.26178856   0.97136485 0.0048788836          0.2    16.465911    0.0028312    106.08887    8994.0053 
   27100    115.22291   0.26187381   0.97365333 0.0048788836          0.2    16.578856 0.0028144106    108.21363    8993.0716 
   27200     115.5036   0.26188103   0.97537819 0.0048788836          0.2    16.691135  0.002797902    108.81854    8991.9542 
   27300    115.78266   0.26196853    0.9770419 0.0048788836          0.2    16.802758 0.0027816669    108.13289     8991.046 
   27400     116.0601   0.26133208   0.97904145 0.0048788836          0.2    16.912574 0.0027649143    109.07351    8989.8545 
   27500    116.33541   0.26188714   0.98054042 0.0048788836          0.2    15.383236 0.0030444384    109.68761    8988.4835 
   27600    116.67777   0.26088192   0.98231806 0.0048788836          0.2    12.372212 0.0034559657    113.31124    8986.0886 
   27700    117.02382   0.26179577   0.98404245 0.0048788836          0.2     12.27613 0.0034660243     113.3828    8983.6851 
   27800    117.37072   0.25977189   0.98633695 0.0048788836          0.2    12.405064 0.0034628644    114.56695    8980.9737 
   27900    117.71833   0.26035588   0.98854398 0.0048788836          0.2    12.517942 0.0034825165    114.58313    8978.2713 
   28000    118.08427   0.26008226   0.99111954 0.0048788836          0.2    12.644692 0.0038665957    109.45144    8977.0023 
   28100    118.46892   0.26019268   0.99318158 0.0048788836          0.2     12.79855 0.0038221156    108.51872    8976.0075 
   28200    118.84918   0.26036303   0.99532897 0.0048788836          0.2    12.950656  0.003779115    108.58483    8974.9939 
   28300    119.22521   0.26090875    0.9973523 0.0048788836          0.2    13.101067 0.0037375143    108.42141    8974.0286 
   28400    119.59713   0.26121292   0.99923456 0.0048788836          0.2    13.254894 0.0036960195    109.13933     8972.856 
   28500    119.97312   0.26080746    1.0012803 0.0048788836          0.2    12.722689 0.0039079256     108.5787    8971.8465 
   28600     120.3618   0.26132759    1.0034521 0.0048788836          0.2     12.87816 0.0038612659    108.56973    8970.8402 
   28700    120.74589   0.26077897    1.0059636 0.0048788836          0.2    13.031795 0.0038162334    108.11723     8969.965 
   28800    121.12554   0.25991657    1.0086528 0.0048788836          0.2    13.183657 0.0037727358    107.69665    8969.2112 
   28900    121.50091   0.26003348    1.0114096 0.0048788836          0.2    13.333805 0.0037306881    107.33368    8968.5618 
   29000    121.87214   0.26105166    1.0136515 0.0048788836          0.2    13.483053 0.0036898134    106.92306    8968.0301 
   29100    122.23925   0.26067227    1.0166257 0.0048788836          0.2    13.639863 0.0036463453    108.78871    8966.9606 
   29200     122.6021   0.26014299    1.0192585 0.0048788836          0.2    13.782283 0.0036085644    109.06528    8965.8146 
   29300     122.9626   0.26103263    1.0216353 0.0048788836          0.2    13.868702 0.0035866226    110.59671    8964.2496 
   29400    123.31962   0.26132039    1.0239796 0.0048788836          0.2    14.011512 0.0035504375    108.74282    8963.1979 
   29500    123.67308   0.26107112    1.0260685 0.0048788836          0.2    14.152894 0.0035153227      107.605    8962.4671 
   29600    124.02307   0.26068442     1.028058 0.0048788836          0.2     14.29289 0.0034812266     109.2348    8961.2803 
   29700    124.36969   0.26008211     1.030191 0.0048788836          0.2    14.431405 0.0034480705    109.14827    8960.1191 
   29800    124.71298   0.26109875     1.032171 0.0048788836          0.2    14.572957 0.0034139762    108.96226    8959.0104 
   29900    125.05292   0.26074349    1.0341181 0.0048788836          0.2     14.71837 0.0033778686    109.18962    8957.8411 
   30000    125.38986   0.25966947    1.0361971 0.0048788836          0.2     14.71551 0.0033604777    108.36864    8956.8977 
   30100    125.72465   0.26025704    1.0380973 0.0048788836          0.2    14.870668 0.0033355071    109.85487    8955.5522 
   30200    126.05695   0.25932154    1.0398722 0.0048788836          0.2    15.002819 0.0033074756    108.58955    8954.5502 
   30300    126.38642   0.25978586    1.0414446 0.0048788836          0.2    15.135928 0.0032788108    109.51823    8953.2989 
   30400    126.71275    0.2596026    1.0430664 0.0048788836          0.2    15.287579 0.0032515724    110.85737    8951.6979 
   30500    127.03669   0.25938761    1.0449082 0.0048788836          0.2    15.417154 0.0032245579    109.05006    8950.5768 
   30600    127.35791   0.26012375    1.0464522 0.0048788836          0.2    15.549297 0.0031976068    108.62032    8949.5719 
   30700    127.67651   0.25982161    1.0476192 0.0048788836          0.2     15.67676 0.0031718902    108.93699    8948.4831 
   30800    127.99284   0.26039124    1.0489754 0.0048788836          0.2    15.768053 0.0031562188     109.6739    8947.2013 
   30900    128.30712   0.26001548    1.0506305 0.0048788836          0.2    15.902662 0.0031337469    109.96394    8945.8464 
   31000    128.61977   0.26071271    1.0518497 0.0048788836          0.2    16.005669 0.0031137524    107.55334    8945.1316 
   31100    128.93007   0.25982371    1.0537336 0.0048788836          0.2    16.133023 0.0030892159    108.99743    8944.0316 
   31200    129.23455   0.25958403    1.0552064 0.0048788836          0.2    16.550692 0.0030207415    109.25939    8942.8644 
   31300    129.53564   0.25940752    1.0568144 0.0048788836          0.2    16.671128 0.0029989231    110.11785    8941.4781 
   31400    129.83456   0.25875894    1.0588383 0.0048788836          0.2    16.790699 0.0029775708    109.62726    8940.2201 
   31500    130.13138   0.25966109    1.0603356 0.0048788836          0.2    16.909424 0.0029566683    109.10991    8939.0973 
   31600     130.4261   0.26063491    1.0619629 0.0048788836          0.2    17.051159 0.0029318462    108.73619    8938.0724 
   31700    130.72315   0.26047078    1.0639431 0.0048788836          0.2    14.791765 0.0033423377    110.10088       8936.7 
   31800     131.0559    0.2600638      1.06652 0.0048788836          0.2    14.930353  0.003312232    107.21307    8936.0753 
   31900    131.38584   0.26002333    1.0683881 0.0048788836          0.2    15.061964 0.0032839053    108.06302     8935.226 
   32000    131.71298   0.26010122    1.0703754 0.0048788836          0.2    15.192819 0.0032562187    107.04048    8934.6437 
   32100    132.03739   0.26113789    1.0723522 0.0048788836          0.2     15.32258 0.0032292162    106.62846     8934.168 
   32200    132.35912   0.26174445    1.0743929 0.0048788836          0.2    15.451272 0.0032028701    109.31719    8932.9962 
   32300    132.67824   0.26087688    1.0766204 0.0048788836          0.2    15.578922 0.0031771544    107.58739    8932.2666 
   32400    132.99468   0.26128029    1.0786268 0.0048788836          0.2    15.745227 0.0031442178    108.46776    8931.3105 
   32500    133.30862   0.26103604    1.0806075 0.0048788836          0.2    15.837982 0.0031264851    107.60544    8930.5745 
   32600    133.62018   0.26108676    1.0821362 0.0048788836          0.2     15.95383 0.0031022852    108.09702    8929.7119 
   32700    133.92893   0.26020798    1.0837914 0.0048788836          0.2     16.14643  0.003065045    108.00581    8928.8721 
   32800    134.24051   0.26067962      1.08552 0.0048788836          0.2     13.40198 0.0031476071     109.5408    8927.6491 
   32900    134.55456   0.26185215    1.0873952 0.0048788836          0.2     13.49919 0.0031306265     108.2797    8926.7406 
   33000    134.86673   0.26065971    1.0896956 0.0048788836          0.2    13.639988 0.0031028884    106.97752    8926.1614 
   33100    135.18213   0.26026339     1.092319 0.0048788836          0.2    14.628353 0.0031477626    107.36456    8925.4815 
   33200    135.49588   0.26076492    1.0944349 0.0048788836          0.2    14.753853 0.0031250098    108.17804    8924.5963 
   33300    135.80738   0.26028075    1.0964715 0.0048788836          0.2     14.87845 0.0031027154    107.39695     8923.906 
   33400    136.11666   0.26268404    1.0982604 0.0048788836          0.2    15.002164  0.003080865    107.99068     8923.066 
   33500    136.42369    0.2616147    1.1004512 0.0048788836          0.2    15.135624 0.0030641412    107.80158    8922.2724 
   33600    136.72997    0.2606976    1.1024997 0.0048788836          0.2    15.996973 0.0030511717     108.1494    8921.3923 
   33700    137.03409   0.26043335    1.1042282 0.0048788836          0.2    16.117529  0.003029231    108.04771    8920.5368 
   33800    137.33602   0.25991608    1.1058346 0.0048788836          0.2    16.239427    0.0030069    106.27919    8920.1211 
   33900    137.63582   0.26078869     1.107333 0.0048788836          0.2    16.290631 0.0029889953    110.38014    8918.7061 
   34000    137.93363   0.25984112    1.1093868 0.0048788836          0.2      16.4346 0.0029630924    106.33852    8918.2724 
   34100    138.24446   0.26084272     1.110957 0.0048788836          0.2    14.108226 0.0031981248     108.6325    8917.2732 
   34200    138.56374   0.26029192    1.1129396 0.0048788836          0.2    14.235937 0.0031862281    107.62292    8916.5183 
   34300    138.88183   0.26055097    1.1148162 0.0048788836          0.2    14.363172 0.0031742193    107.11089    8915.8875 
   34400    139.19871   0.25994706    1.1168348 0.0048788836          0.2    14.702842 0.0031633938    108.84153    8914.8383 
   34500    139.51453    0.2612512    1.1189428 0.0048788836          0.2    14.829691 0.0031516036     108.0567    8913.9765 
   34600    139.83344   0.26066168    1.1210133 0.0048788836          0.2    14.957258 0.0033343414    108.45988    8913.0184 
   34700    140.16556   0.26099513    1.1227472 0.0048788836          0.2    15.090103  0.003305135     106.9395    8912.4251 
   34800    140.49478    0.2604425    1.1250582 0.0048788836          0.2    15.221953 0.0032766398    110.61984     8910.967 
   34900    140.82029   0.26108754     1.127201 0.0048788836          0.2    14.059105 0.0035097212    108.51272    8909.9975 
   35000    141.17649   0.26051347    1.1295121 0.0048788836          0.2    13.947762 0.0035515232    109.56503    8908.7842 
   35100    141.53002   0.26176193      1.13159 0.0048788836          0.2    14.105948 0.0035122264    108.25416    8907.8764 
   35200    141.87977   0.26088017    1.1345727 0.0048788836          0.2    14.240923 0.0034796763    108.63922    8906.8789 
   35300    142.22624   0.26041872    1.1370952 0.0048788836          0.2    14.379514 0.0034467263    109.04447    8905.7883 
   35400    142.56947   0.26129219    1.1395514 0.0048788836          0.2    14.516804   0.00341469    108.96996    8904.7157 
   35500    142.90947   0.26074169    1.1424545 0.0048788836          0.2    14.656967   0.00338363    110.04926    8903.3995 
   35600    143.26436   0.26061505    1.1448676 0.0048788836          0.2    12.791997 0.0038037367    109.89191    8902.1208 
   35700    143.64309   0.26036551    1.1476105 0.0048788836          0.2    12.987872  0.003767231    108.43613    8901.1742 
   35800     144.0182   0.26069082    1.1500943 0.0048788836          0.2    12.916957 0.0037316197    107.51634    8900.4402 
   35900    144.38977   0.26136109    1.1526628 0.0048788836          0.2    11.476399 0.0036954191    109.23984     8899.311 
   36000    144.76802    0.2610392    1.1546756 0.0048788836          0.2      10.3207 0.0041898284    107.55348    8898.5674 
   36100    145.18965   0.26067632    1.1566513 0.0048788836          0.2    10.489354  0.004217628    107.05712    8897.9378 
   36200    145.61124   0.26093591    1.1592084 0.0048788836          0.2    10.657989 0.0042135543    107.78903    8897.1377 
   36300    146.03241   0.26029811     1.162214 0.0048788836          0.2    10.826496 0.0042064038    108.20182    8896.2429 
   36400    146.47246    0.2603525    1.1651276 0.0048788836          0.2    11.057164 0.0044673018    108.25849    8895.3352 
   36500    146.91607   0.26016574    1.1683079 0.0048788836          0.2    11.234996 0.0043981896    107.51555    8894.5958 
   36600    147.35288   0.26086897    1.1711527 0.0048788836          0.2    11.405575  0.004332287     108.4139    8893.6525 
   36700    147.78294   0.25925954    1.1743257 0.0048788836          0.2      11.5921  0.004253257    106.84116    8893.0658 
   36800    148.21249   0.26055133    1.1771229 0.0048788836          0.2    11.305064 0.0044215886    109.54798    8891.8718 
   36900    148.65158   0.26130978    1.1798916 0.0048788836          0.2    11.480701 0.0043539815    108.84627     8890.833 
   37000    149.08405   0.26107812    1.1825688 0.0048788836          0.2    11.653688 0.0042893846    106.82562    8890.2471 
   37100    149.51503    0.2607035     1.185675 0.0048788836          0.2    10.967488 0.0044998033    107.32986    8889.5452 
   37200    149.96184   0.26076016     1.188379 0.0048788836          0.2    11.150121 0.0044298601    108.00723    8888.6908 
   37300    150.40181   0.26019564    1.1915535 0.0048788836          0.2    11.159954 0.0043626973    107.43967    8887.9622 
   37400    150.83448   0.25861927      1.19515 0.0048788836          0.2    11.562897 0.0042530561    108.71018    8886.9526 
   37500    151.25727   0.26067115    1.1977949 0.0048788836          0.2    11.489174 0.0041869306    110.38723    8885.5848 
   37600    151.67416   0.25987936    1.2010524 0.0048788836          0.2    11.659652 0.0041465212    107.09514    8884.9322 
   37700    152.08695   0.26092477    1.2034063 0.0048788836          0.2    11.820438 0.0041060817    108.48636    8883.9725 
   37800    152.49578   0.26165114    1.2060642 0.0048788836          0.2    11.979039 0.0040667326    108.80812    8882.9435 
   37900    152.90071   0.26060439    1.2098285 0.0048788836          0.2    12.140319 0.0040276296    107.81613    8882.1299 
   38000    153.30213   0.25938102     1.212823 0.0048788836          0.2    12.306198 0.0040375344    107.35442    8881.4166 
   38100    153.70276   0.25948671    1.2152397 0.0048788836          0.2    12.459503 0.0039755786    106.79241    8880.8259 
   38200    154.09946   0.25908902    1.2184719 0.0048788836          0.2    11.754165 0.0040045261    109.73264    8879.6017 
   38300    154.49929   0.26062518    1.2213478 0.0048788836          0.2    11.910729 0.0039763143    108.83667    8878.5675 
   38400    154.89478   0.26015012    1.2241112 0.0048788836          0.2    12.068927 0.0039292813     107.2973     8877.864 
   38500    155.28566   0.26098993    1.2268916 0.0048788836          0.2    12.227123 0.0038834049    108.05038    8876.9971 
   38600    155.66536   0.26105883    1.2297087 0.0048788836          0.2     12.40504 0.0037197614    109.53528    8875.8174 
   38700    156.03574   0.26155418    1.2318639 0.0048788836          0.2    12.552974 0.0036844391    107.32401    8875.1063 
   38800    156.40263   0.26085135    1.2340985 0.0048788836          0.2    12.699729 0.0036500027    107.44333    8874.3684 
   38900     156.7661   0.26135963    1.2363413 0.0048788836          0.2    12.845119 0.0036145672     107.2231    8873.6768 
   39000    157.13042   0.26149001    1.2387943 0.0048788836          0.2    12.994625  0.003678248    107.24572    8872.9791 
   39100    157.49658   0.26085622    1.2413409 0.0048788836          0.2    13.154909 0.0036423005    107.07452    8872.3168 
   39200    157.85949    0.2605059    1.2432876 0.0048788836          0.2    13.233392 0.0036151346    109.02486    8871.2437 
   39300    158.21842   0.26095814    1.2452357 0.0048788836          0.2     13.40351 0.0035638866    108.20604     8870.341 
   39400    158.57375   0.26097909     1.247545 0.0048788836          0.2    13.532632 0.0035353319    108.08157    8869.4642 
   39500    158.92577   0.26039029    1.2499757 0.0048788836          0.2    13.675485 0.0035008582    108.91586    8868.4148 
   39600    159.28445   0.26006032    1.2521788 0.0048788836          0.2    13.118492 0.0036705649    109.13671     8867.321 
   39700    159.65016   0.26108853    1.2545988 0.0048788836          0.2    13.264996 0.0036405674    107.94507    8866.4727 
   39800    160.01311   0.26174173    1.2565861 0.0048788836          0.2    13.409693 0.0036147184     107.9797    8865.6169 
   39900    160.37316   0.26096408    1.2589698 0.0048788836          0.2    13.553715 0.0035814096    108.08207    8864.7396 
   40000    160.72971   0.26122284    1.2611499 0.0048788836          0.2    13.696335 0.0035462289    105.41983    8864.4229 
   40100    161.08279   0.26020744    1.2636661 0.0048788836          0.2    13.837565 0.0035120457    107.85672      8863.59 
   40200    161.43249   0.26135927    1.2660634 0.0048788836          0.2    13.977446 0.0034788142    107.48414    8862.8333 
   40300    161.77891   0.26192333     1.268385 0.0048788836          0.2    14.116014 0.0034464916    107.01789    8862.1723 
   40400    162.12213   0.26126945    1.2706835 0.0048788836          0.2    14.251581 0.0034149625    108.69024    8861.1685 
   40500    162.46215   0.26102807    1.2727123 0.0048788836          0.2    14.391216 0.0033794982    108.57361    8860.1884 
   40600    162.81959   0.26195967    1.2749699 0.0048788836          0.2    12.833797  0.003591126    110.03026    8858.9206 
   40700    163.18313   0.26233235    1.2773551 0.0048788836          0.2    12.979216 0.0036478972    111.20266    8857.4286 
   40800    163.54711   0.26173932    1.2795403 0.0048788836          0.2    13.124806 0.0036239156    106.65405    8856.8412 
   40900     163.9221   0.26135141    1.2819765 0.0048788836          0.2    13.274803 0.0037631313    108.26832    8855.9243 
   41000    164.29652   0.26159191    1.2842793 0.0048788836          0.2     13.42457 0.0037212239    106.63109    8855.3391 
   41100     164.6668   0.26053502    1.2865503 0.0048788836          0.2    13.572833  0.003680637    106.62106    8854.7542 
   41200    165.03304   0.26214678    1.2883257 0.0048788836          0.2     13.72083 0.0036410464    108.02553    8853.8837 
   41300    165.39543   0.26119536    1.2906157 0.0048788836          0.2    13.865611 0.0036030766     109.9995    8852.6275 
   41400    165.75365    0.2617034    1.2924399 0.0048788836          0.2    14.006057 0.0035645181    110.72284    8851.2353 
   41500    166.11342   0.26105955    1.2945319 0.0048788836          0.2    13.060677 0.0037006239    108.44154    8850.2844 
   41600    166.48173    0.2607769    1.2971887 0.0048788836          0.2    13.207785 0.0036618242     108.6143    8849.2998 
   41700    166.84608   0.26211202     1.299694 0.0048788836          0.2    13.377826 0.0036245175    108.17617    8848.4012 
   41800    167.20699   0.26149134      1.30178 0.0048788836          0.2    13.516759 0.0035893833    108.65042      8847.41 
   41900    167.56432   0.26140054    1.3036729 0.0048788836          0.2    13.659833 0.0035539375    109.11218    8846.3301 
   42000    167.91812   0.26124689     1.305546 0.0048788836          0.2    13.771302  0.003522676    107.77266    8845.5108 
   42100    168.26867   0.26153159     1.307683 0.0048788836          0.2    13.909886 0.0034796082     107.7548    8844.6944 
   42200    168.61812   0.26144455    1.3098299 0.0048788836          0.2     13.54561 0.0035550824    109.99745    8843.4481 
   42300    168.97428   0.26134844    1.3120677 0.0048788836          0.2    12.782624 0.0035391919    109.39087    8842.3175 
   42400    169.32677   0.26076649     1.314023 0.0048788836          0.2    12.923579 0.0035074983    107.44094    8841.5626 
   42500    169.67611   0.26175058    1.3159066 0.0048788836          0.2    13.063017 0.0034767304    107.42674    8840.8097 
   42600    170.02235    0.2601755    1.3179876 0.0048788836          0.2    12.912765 0.0035775668    107.95707    8839.9532 
   42700    170.39128   0.26137396    1.3199193 0.0048788836          0.2    13.111019 0.0036870614    109.35117    8838.8316 
   42800    170.75903    0.2617662    1.3217816 0.0048788836          0.2    12.144661 0.0036657843    108.37006    8837.8961 
   42900    171.12461   0.26130362     1.323761 0.0048788836          0.2     12.27282 0.0039477323    107.30076    8837.1658 
   43000    171.51725   0.26134799    1.3257803 0.0048788836          0.2    12.429879  0.003900841    107.05124     8836.483 
   43100    171.90529   0.26132323    1.3281281 0.0048788836          0.2    12.585093 0.0038555492    107.31674    8835.7476 
   43200    172.28886    0.2607109    1.3307237 0.0048788836          0.2    12.739155 0.0038113551    107.27337    8835.0197 
   43300    172.66937   0.26062524    1.3330681 0.0048788836          0.2    12.469191  0.003821905     109.4487    8833.8815 
   43400     173.0497   0.25980161    1.3354326 0.0048788836          0.2    12.620107 0.0037804272    107.41623    8833.1254 
   43500     173.4259   0.26026859     1.337756 0.0048788836          0.2    12.771572 0.0037392178    107.62977    8832.3279 
   43600    173.80871   0.26122674     1.339999 0.0048788836          0.2    11.971948 0.0038656316    108.49694    8831.3668 
   43700    174.19341   0.26089972    1.3420134 0.0048788836          0.2    12.126025 0.0038241487     107.8074     8830.535 
   43800    174.57408   0.26074138    1.3446238 0.0048788836          0.2    12.278291 0.0037851659    107.94882    8829.6761 
   43900    174.95078   0.26088833    1.3464658 0.0048788836          0.2    12.429959 0.0037537276    108.95193    8828.6313 
   44000    175.32463   0.26172316     1.348447 0.0048788836          0.2    12.579916 0.0037179936    106.23787    8828.0964 
   44100    175.69476   0.26092906    1.3515104 0.0048788836          0.2    12.726717 0.0036810469    107.37366    8827.3439 
   44200    176.06124   0.26008231    1.3541037 0.0048788836          0.2    12.873309 0.0036451103    106.61707    8826.7335 
   44300    176.42417   0.25969746     1.356573 0.0048788836          0.2    13.018481 0.0036101406    108.21271    8825.8233 
   44400    176.78363   0.26037699    1.3582831 0.0048788836          0.2    13.170661 0.0035673248      107.907    8824.9693 
   44500    177.13504   0.25983113    1.3602046 0.0048788836          0.2    13.604957 0.0034888803    108.92831    8823.9285 
   44600    177.48246    0.2601023    1.3621385 0.0048788836          0.2    13.742534 0.0034549893    107.61168    8823.1288 
   44700    177.85612   0.25965934    1.3647294 0.0048788836          0.2    11.545876 0.0042874335     107.8608    8822.2827 
   44800    178.28311   0.26042456    1.3668025 0.0048788836          0.2    11.715795 0.0042407922    108.36043     8821.345 
   44900     178.7045   0.26037637    1.3691017 0.0048788836          0.2     11.88435  0.004181387    106.71039     8820.711 
   45000    179.12005   0.26081252    1.3717656 0.0048788836          0.2    12.050572 0.0041244017    107.32171    8819.9623 
   45100       179.53   0.26058116    1.3743719 0.0048788836          0.2    12.213802 0.0040693724    106.95657    8819.2802 
   45200    179.93446     0.260112    1.3773588 0.0048788836          0.2    12.373349 0.0040141727    107.01688    8818.5858 
   45300    180.33284   0.26033306    1.3798867 0.0048788836          0.2    12.550567  0.003940051    108.72661    8817.5807 
   45400    180.73888    0.2602524     1.382143 0.0048788836          0.2     11.83656 0.0041557472    111.26118    8816.1354 
   45500    181.15094     0.260463    1.3850673 0.0048788836          0.2    11.996296  0.004102758    109.13694    8815.0595 
   45600    181.55881   0.25998326    1.3871755 0.0048788836          0.2    12.160588  0.004049452    107.51902    8814.2729 
   45700    181.96144   0.26002141    1.3889007 0.0048788836          0.2    12.321533   0.00399839    106.82097    8813.6126 
   45800    182.35903   0.26063552    1.3916354 0.0048788836          0.2    12.480538  0.003948896    107.40861    8812.8443 
   45900    182.75178   0.26090507     1.393539 0.0048788836          0.2    12.634887 0.0039017368    108.46739    8811.8865 
   46000    183.13986   0.26002538    1.3962216 0.0048788836          0.2    12.790313   0.00385561    105.27956    8811.5077 
   46100    183.52338   0.26084963     1.398189 0.0048788836          0.2    12.944671 0.0038108691    109.07813    8810.4421 
   46200    183.90252   0.26032305     1.400479 0.0048788836          0.2    13.096395 0.0037678352    108.88609    8809.4104 
   46300    184.27741   0.26077219    1.4026109 0.0048788836          0.2    13.255332 0.0037236334    107.59873    8808.6056 
   46400    184.64794   0.26091055    1.4048874 0.0048788836          0.2    13.393678 0.0036853195    108.77533    8807.5936 
   46500    185.01427    0.2607059    1.4068916 0.0048788836          0.2     13.53215 0.0036409542    107.74691     8806.762 
   46600    185.38364   0.26091702    1.4092985 0.0048788836          0.2    11.954026 0.0037175897    108.91702     8805.726 
   46700     185.7539   0.26033656    1.4118949 0.0048788836          0.2    12.111575  0.003683044    107.06788    8805.0141 
   46800    186.12054   0.26015419    1.4143132 0.0048788836          0.2    12.262476 0.0036482481     108.3608    8804.0743 
   46900    186.48327   0.26036203    1.4167299 0.0048788836          0.2    12.373874 0.0035991884    107.10583    8803.3544 
   47000    186.84835   0.26058796    1.4189826 0.0048788836          0.2    9.6504721 0.0037007661    110.19089    8802.1035 
   47100    187.21407   0.26056257    1.4219602 0.0048788836          0.2    9.9229837 0.0036552672     111.9278    8800.5691 
   47200    187.57962   0.26105287    1.4237575 0.0048788836          0.2    10.062317 0.0036557828    113.78222    8798.7436 
   47300    187.94521   0.26042388    1.4264331 0.0048788836          0.2    10.208801 0.0036558802    112.35701    8797.1465 
   47400    188.31078   0.26042961    1.4289105 0.0048788836          0.2    10.343004 0.0036552224     107.0602    8796.4375 
   47500    188.73069   0.25984102    1.4312799 0.0048788836          0.2     9.757377 0.0046763006    110.64126    8795.1212 
   47600    189.19688   0.26100127    1.4336851 0.0048788836          0.2     9.935967 0.0046514671    110.38502    8793.8486 
   47700    189.59482   0.26129072    1.4355655 0.0048788836          0.2    10.264349 0.0038891141    109.01225    8792.8053 
   47800    189.98186   0.26106882     1.437787 0.0048788836          0.2    10.966958 0.0040909882    108.22617    8791.8953 
   47900    190.36994   0.26059738    1.4402675 0.0048788836          0.2    12.124841 0.0038378299    108.36175    8790.9623 
   48000    190.75185   0.26174622    1.4432009 0.0048788836          0.2    12.277604 0.0037963671    105.79759    8790.4728 
   48100    191.12967   0.26043178    1.4456862 0.0048788836          0.2    12.428731 0.0037561561    107.28498    8789.7222 
   48200    191.50315   0.26033188     1.447686 0.0048788836          0.2    12.584001 0.0037005252    108.86593    8788.7035 
   48300    191.89287   0.25911579    1.4494995 0.0048788836          0.2    11.818823 0.0038820227    108.00069    8787.8302 
   48400    192.27916   0.26058591    1.4510988 0.0048788836          0.2    11.973535 0.0038396131    108.43576    8786.8837 
   48500     192.6609   0.26083861    1.4535604 0.0048788836          0.2    12.107461 0.0037945457    106.52452    8786.2619 
   48600    193.03856   0.26069846    1.4558671 0.0048788836          0.2    12.258526 0.0037549522    107.93121    8785.3992 
   48700    193.41234   0.26001091    1.4580301 0.0048788836          0.2    12.403831 0.0037172499    108.38028    8784.4614 
   48800    193.78238   0.26026371     1.459736 0.0048788836          0.2    12.551844 0.0036798749    107.93763    8783.5973 
   48900    194.14872   0.26038194    1.4615737 0.0048788836          0.2    12.698465 0.0036426898    108.71314    8782.6044 
   49000    194.53546   0.26023939    1.4638383 0.0048788836          0.2    11.431139 0.0041670418    106.99411    8781.8987 
   49100    194.95127   0.26082975    1.4658036 0.0048788836          0.2    11.509287 0.0043371702    108.62726    8780.9198 
   49200    195.38209    0.2604962    1.4685076 0.0048788836          0.2    11.685788 0.0042717463    110.09906    8779.7035 
   49300    195.80322   0.25976698    1.4709014 0.0048788836          0.2    11.943278 0.0041738919    108.33815     8778.773 
   49400    196.21803   0.25977314    1.4731317 0.0048788836          0.2    12.109202 0.0041170355    108.19911    8777.8654 
   49500    196.62726   0.25920569    1.4749586 0.0048788836          0.2    12.272894 0.0040624378    107.82938    8777.0186 
   49600    197.03113   0.25993292    1.4770476 0.0048788836          0.2     12.43444 0.0040099532    107.70627    8776.1917 
   49700    197.42983   0.26020993    1.4787533 0.0048788836          0.2    12.593922 0.0039594488    108.40275    8775.2505 
   49800    197.82357   0.26059497    1.4808559 0.0048788836          0.2    12.751419 0.0039108034    106.95507    8774.5475 
   49900    198.21253   0.26016632    1.4829954 0.0048788836          0.2    12.907001 0.0038639058    108.13487    8773.6493 
   50000    198.59683    0.2598014    1.4850943 0.0048788836          0.2    13.066152 0.0038163553    107.10077    8772.9207 
   50100    198.97673   0.26025924    1.4870669 0.0048788836          0.2    13.206669  0.003775238    106.27389    8772.3291 
   50200    199.35233   0.26049977    1.4885913 0.0048788836          0.2    13.355668 0.0037320463    107.88105    8771.4708 
   50300     199.7235   0.25973337     1.490257 0.0048788836          0.2    13.530649 0.0036790196    109.27994    8770.3882 
   50400    200.09291   0.26047007    1.4917079 0.0048788836          0.2    13.401559 0.0036773227    109.48764    8769.2735 
   50500    200.45879   0.25949681    1.4936461 0.0048788836          0.2    13.551249 0.0036401855    107.78848    8768.4304 
   50600    200.83983   0.25909652     1.496054 0.0048788836          0.2    12.921584 0.0038689516    107.61066    8767.6157 
   50700    201.22466   0.26069765    1.4979336 0.0048788836          0.2    13.075517 0.0038234165    108.62091    8766.6387 
   50800    201.60501   0.26005488     1.500105 0.0048788836          0.2    13.227657 0.0037794526    108.78871    8765.6354 
   50900    201.98103   0.26018488      1.50161 0.0048788836          0.2    13.379974 0.0037364337    107.78338    8764.7923 
   51000    202.35281   0.26027744    1.5035872 0.0048788836          0.2    13.529045 0.0036952994     106.4371    8764.1672 
   51100    202.72066   0.25986577    1.5055276 0.0048788836          0.2    13.656712 0.0036606573    106.79219    8763.4829 
   51200    203.08498   0.25995551    1.5071611 0.0048788836          0.2    13.802439 0.0036220193    108.54192    8762.5179 
   51300    203.44548   0.25888342    1.5095448 0.0048788836          0.2    13.946928 0.0035845124    107.25299    8761.7578 
   51400    203.80229   0.26045541    1.5116308 0.0048788836          0.2    14.089624 0.0035482193    106.89526    8761.0547 
   51500    204.15552   0.25929737    1.5141329 0.0048788836          0.2    14.230915 0.0035130005    108.89759    8760.0338 
   51600    204.50527        0.259    1.5160986 0.0048788836          0.2    14.370816 0.0034788103    109.41638    8758.9333 
   51700    204.85165   0.25977152     1.518203 0.0048788836          0.2    14.508154 0.0034458904    108.03254    8758.0482 
   51800    205.19396   0.25959822    1.5202036 0.0048788836          0.2    14.695297 0.0034008687     109.8335    8756.8852 
   51900    205.53259   0.25945835    1.5216616 0.0048788836          0.2    14.827842 0.0033701423    109.04592    8755.8432 
   52000    205.86824   0.25946993    1.5231663 0.0048788836          0.2    14.962316 0.0033399253    108.02461    8754.9598 
   52100     206.2009   0.26011088    1.5252308 0.0048788836          0.2    15.095381 0.0033105153    108.92831    8753.9365 
   52200    206.53066   0.25935044    1.5274454 0.0048788836          0.2    15.227284 0.0032818688    109.29224    8752.8581 
   52300    206.85755   0.25907002    1.5296717 0.0048788836          0.2    15.361231 0.0032533115    108.71303    8751.8687 
   52400    207.18165   0.26027437    1.5313043 0.0048788836          0.2    15.490536 0.0032261768    106.90477    8751.1609 
   52500    207.50301   0.26003454    1.5332124 0.0048788836          0.2    15.622761 0.0031989745    108.42234    8750.2159 
   52600    207.82169   0.25934553    1.5353133 0.0048788836          0.2    15.714704 0.0031799021     108.6195    8749.2409 
   52700    208.13854   0.26047058    1.5375601 0.0048788836          0.2    15.840579 0.0031546412    107.81787    8748.3891 
   52800    208.45289   0.26016176    1.5398677 0.0048788836          0.2       15.966 0.0031298715    107.15081    8747.6406 
   52900    208.76478   0.26073887    1.5419657 0.0048788836          0.2    16.090757  0.003105632    107.26116    8746.8742 
   53000    209.07427   0.26079232    1.5439218 0.0048788836          0.2    16.232426 0.0030781099     107.0469    8746.1406 
[...]
  985300    3655.3443   0.26078976    20.916899 0.0048788836          0.2    11.526472 0.0042526988    109.23329    135.72919 
  985400    3655.7703   0.25953105    20.919327 0.0048788836          0.2    11.587872 0.0042330534    108.82021     134.8058 
  985500     3656.191   0.25925163    20.921864 0.0048788836          0.2    11.756706 0.0041744144    108.73616    133.88242 
  985600    3656.6059   0.25996309    20.924342 0.0048788836          0.2    11.922587 0.0041184587     107.9521    132.95913 
  985700    3657.0153   0.25935742    20.926726 0.0048788836          0.2    12.086349 0.0040646024    109.13504     132.0357 
  985800    3657.4196   0.26059344      20.9293 0.0048788836          0.2    12.218298 0.0040204466    108.76244    131.11232 
  985900    3657.8174   0.26012716     20.93154 0.0048788836          0.2    12.377185 0.0039315445    109.12479     130.1889 
  986000    3658.2089   0.26018468    20.933767 0.0048788836          0.2    12.533814 0.0038952711    108.09641     129.2656 
  986100    3658.5974   0.26055854    20.936328 0.0048788836          0.2    12.689104 0.0038762518    107.44856    128.34237 
  986200    3658.9831   0.26020984    20.938805 0.0048788836          0.2    12.838453 0.0038326744    109.17006    127.41895 
  986300    3659.3644   0.25949518    20.941386 0.0048788836          0.2    12.991495 0.0037896235    107.59721     126.4957 
  986400    3659.7414   0.26008831    20.943718 0.0048788836          0.2    13.142316  0.003747436    108.24024    125.57238 
  986500    3660.1143   0.26066333    20.946093 0.0048788836          0.2    13.291474 0.0037066137    108.10797    124.64908 
  986600    3660.4831   0.26113547    20.948397 0.0048788836          0.2    13.467294 0.0036603115    107.97831    123.72579 
  986700    3660.8475   0.26053462    20.950887 0.0048788836          0.2    13.608948 0.0036236813    109.12289    122.80237 
  986800    3661.2082    0.2601212    20.952775 0.0048788836          0.2    13.753226 0.0035866866     108.0267    121.87908 
  986900    3661.5652   0.26055258     20.95463 0.0048788836          0.2    13.897043  0.003550666    107.90306     120.9558 
  987000    3661.9187   0.26061242    20.956238 0.0048788836          0.2    14.038439 0.0035158223    106.43313    120.03268 
  987100    3662.2688   0.25919456    20.958812 0.0048788836          0.2     14.18117 0.0034811337    108.06967    119.10938 
  987200    3662.6159   0.26049544    20.960833 0.0048788836          0.2    13.263383 0.0037546818    107.96594    118.18609 
  987300    3662.9895   0.26079793    20.963304 0.0048788836          0.2    13.412818 0.0037131787    109.22479    117.26266 
  987400     3663.359   0.25971214    20.965718 0.0048788836          0.2    13.560631  0.003672979     108.0552    116.33936 
  987500    3663.7245   0.25970548    20.968329 0.0048788836          0.2    13.709244 0.0036334388     108.3372    115.41603 
  987600    3664.0861   0.26116031    20.969696 0.0048788836          0.2    13.849454 0.0035949088    107.74805    114.49276 
  987700    3664.4432   0.25980989    20.972119 0.0048788836          0.2    14.081256 0.0035348961      108.383    113.56942 
  987800    3664.7956   0.26128198    20.973889 0.0048788836          0.2    14.126566 0.0035115169    108.97472    112.64602 
  987900      3665.15   0.26122376    20.975773 0.0048788836          0.2    10.649913  0.003789562    110.16114    111.72251 
  988000     3665.528   0.26061827    20.978442 0.0048788836          0.2    10.860047 0.0037664688    110.12612    110.79899 
  988100    3665.9031   0.26029988    20.981343 0.0048788836          0.2    11.009573 0.0037317092    107.38012    109.87576 
  988200    3666.2748   0.26009918    20.983734 0.0048788836          0.2    11.155302 0.0036981703    107.62292    108.95251 
  988300    3666.6431   0.26082805    20.985927 0.0048788836          0.2    11.295856 0.0036655292    108.17138     108.0292 
  988400    3667.0082   0.25963126    20.988173 0.0048788836          0.2    11.440675 0.0036334569    108.44459    107.10586 
  988500    3667.3697   0.26001524    20.990509 0.0048788836          0.2    11.590243 0.0035967469    107.28624    106.18263 
  988600     3667.728   0.26072593    20.992487 0.0048788836          0.2    11.740475 0.0035630433    108.98185    105.25924 
  988700    3668.1125   0.25990499    20.994876 0.0048788836          0.2    11.098193 0.0040110748    108.89615    104.33585 
  988800    3668.5131   0.26037768    20.996664 0.0048788836          0.2    11.165188  0.003999986    109.03438    103.41246 
  988900    3668.9126    0.2602281     20.99896 0.0048788836          0.2    11.324975 0.0039880824    108.66599     102.4891 
  989000    3669.3098   0.26044024    21.001076 0.0048788836          0.2    11.483854 0.0039523021    108.11196    101.56579 
  989100    3669.7256   0.26050197    21.003354 0.0048788836          0.2    11.650799 0.0042281732    110.10368     100.6423 
  989200    3670.1458   0.25993798    21.005208 0.0048788836          0.2    11.818004 0.0041701771    108.03813       99.719 
  989300    3670.5603   0.25988063     21.00706 0.0048788836          0.2    11.982416 0.0041140437    107.74445    98.795728 
  989400    3670.9692   0.25982603    21.008567 0.0048788836          0.2     12.14772 0.0040581661    108.37289    97.872397 
  989500    3671.3722   0.25989593    21.010343 0.0048788836          0.2    12.313178  0.003983549    109.18856    96.948993 
  989600     3671.776    0.2594517    21.012586 0.0048788836          0.2    12.123099 0.0040241405     109.5313     96.02556 
  989700    3672.1768   0.26007958    21.014714 0.0048788836          0.2    12.279385 0.0039829851    108.89284    95.102186 
  989800     3672.573   0.25929403    21.017272 0.0048788836          0.2    12.437209 0.0039347938      108.434    94.178852 
  989900    3672.9643   0.26010978    21.019579 0.0048788836          0.2    12.593752 0.0038879029    108.36502    93.255525 
  990000    3673.3516   0.25938133    21.021509 0.0048788836          0.2    12.662017 0.0038718746    109.63792     92.33209 
  990100    3673.7368   0.25916708    21.023823 0.0048788836          0.2    12.815959 0.0038271179     108.9448    91.408714 
  990200    3674.1175   0.26023677    21.025454 0.0048788836          0.2    12.968259 0.0037838379    108.44684    90.485382 
  990300     3674.494   0.26026726     21.02739 0.0048788836          0.2    13.118855 0.0037419767    108.63295    89.562035 
  990400    3674.8664   0.25934878    21.029505 0.0048788836          0.2      13.2678 0.0037014588    109.36922    88.638627 
  990500    3675.2347   0.26014416    21.031503 0.0048788836          0.2    13.416147 0.0036619556    108.65076     87.71528 
  990600    3675.5992   0.26032224    21.034056 0.0048788836          0.2    13.560041 0.0036245386    109.07947    86.791899 
  990700      3675.96   0.25984358    21.036694 0.0048788836          0.2    13.704355 0.0035876391    108.64544    85.868554 
  990800    3676.3171   0.26037188    21.038845 0.0048788836          0.2    13.852054 0.0035535653    109.63279    84.945132 
  990900    3676.6709   0.26003854    21.041175 0.0048788836          0.2    13.993566 0.0035187196     108.5907    84.021793 
  991000    3677.0213   0.26121277    21.042742 0.0048788836          0.2    14.133702 0.0034848694    108.79418    83.098439 
  991100    3677.3678   0.26007976    21.044688 0.0048788836          0.2    14.317763  0.003445806    106.51941    82.175262 
  991200     3677.711   0.26017705    21.046343 0.0048788836          0.2    14.455019 0.0034139378    107.82916    81.251981 
  991300     3678.051   0.26034404    21.048429 0.0048788836          0.2    14.591015 0.0033829305     107.9058    80.328693 
  991400    3678.3879   0.26068085    21.050397 0.0048788836          0.2    14.725787 0.0033527463    108.17478    79.405384 
  991500    3678.7218    0.2613423    21.052367 0.0048788836          0.2    14.859365 0.0033233494    108.03967    78.482085 
  991600    3679.0528   0.26038898    21.054674 0.0048788836          0.2    14.996502 0.0032930194    108.69897    77.558738 
  991700     3679.381   0.26013433    21.056852 0.0048788836          0.2    15.122624 0.0032660039     108.1255    76.635433 
  991800    3679.7075    0.2597834    21.059232 0.0048788836          0.2    14.868641 0.0033620185    108.73881    75.712084 
  991900    3680.0423    0.2601001    21.061289 0.0048788836          0.2    15.001446  0.003332288    109.04648    74.788715 
  992000    3680.3742   0.26000974    21.063722 0.0048788836          0.2    15.134209 0.0033030685    107.46147    73.865456 
  992100    3680.7033   0.26017889    21.065932 0.0048788836          0.2    15.265817 0.0032746044     107.8479    72.942169 
  992200    3681.0295   0.26115941    21.067737 0.0048788836          0.2    15.404714  0.003245023    107.43664    72.018909 
  992300    3681.3517   0.25959136    21.069876 0.0048788836          0.2    15.611909 0.0032011657    107.35511    71.095653 
  992400    3681.6707   0.26042398    21.072288 0.0048788836          0.2     15.73426 0.0031762239    107.84951    70.172362 
  992500    3681.9872   0.26048835    21.074118 0.0048788836          0.2    15.860851 0.0031508979    108.84342    69.249007 
  992600    3682.3012   0.26115774    21.075863 0.0048788836          0.2     15.98644 0.0031261681    108.16086    68.325696 
  992700    3682.6127   0.26080567     21.07796 0.0048788836          0.2    16.111155 0.0031019877    107.62789    67.402419 
  992800    3682.9218   0.26151143    21.079732 0.0048788836          0.2     16.23431 0.0030784197    107.53625    66.479146 
  992900    3683.2286   0.26019286    21.081732 0.0048788836          0.2    16.352073 0.0030563648    107.97189    65.555845 
  993000    3683.5332   0.26011624    21.083377 0.0048788836          0.2    16.474853  0.003033468    107.19953     64.63259 
  993100    3683.8356   0.26053346    21.084825 0.0048788836          0.2    16.592521 0.0030117316    108.19278    63.709274 
  993200    3684.1358   0.26021142    21.086675 0.0048788836          0.2    16.712537 0.0029901167    107.90922    62.785974 
  993300    3684.4336   0.26038675    21.088672 0.0048788836          0.2    16.870414 0.0029612964     108.8587     61.86262 
  993400    3684.7293   0.26004894    21.090192 0.0048788836          0.2    17.004502 0.0029374922    108.67216    60.939276 
  993500    3685.0224   0.26054237    21.092296 0.0048788836          0.2    17.093029  0.002921151    108.81035    60.015926 
  993600    3685.3136   0.26087884    21.094437 0.0048788836          0.2    17.213934 0.0028989674     108.8938    59.092572 
  993700    3685.6024   0.26161009    21.096017 0.0048788836          0.2     17.35004 0.0028716398    108.10951    58.169261 
  993800    3685.8999   0.26154011    21.097244 0.0048788836          0.2    10.239213 0.0029872775    111.84471    57.245757 
  993900    3686.1984   0.26057455    21.099308 0.0048788836          0.2    10.359042 0.0029806866     106.8826    56.322513 
  994000    3686.5097   0.26062451    21.101095 0.0048788836          0.2    10.478979 0.0031263151    109.41649    55.399137 
  994100    3686.8225   0.26061571    21.103301 0.0048788836          0.2    10.604091 0.0031287464    113.20359    54.475581 
  994200    3687.1354   0.26067477     21.10524 0.0048788836          0.2    10.729274 0.0031289353    112.71811    53.552055 
  994300    3687.4798   0.26131331    21.106725 0.0048788836          0.2    12.523607 0.0036016386    112.97801    52.628525 
  994400    3687.8405   0.26049145    21.108804 0.0048788836          0.2    12.911491 0.0036000947    110.82579    51.705099 
  994500     3688.199   0.26083444    21.110949 0.0048788836          0.2    13.056601 0.0035660076    107.71974    50.781822 
  994600    3688.5541    0.2612514    21.112739 0.0048788836          0.2    13.198638 0.0035326595    108.09783    49.858526 
  994700    3688.9059   0.26085796    21.114692 0.0048788836          0.2    13.339357 0.0035001853    108.03557    48.935232 
  994800    3689.2544   0.25966481    21.116932 0.0048788836          0.2     13.53297 0.0034568463    108.66754     48.01191 
  994900    3689.5982   0.26046253     21.11868 0.0048788836          0.2    10.878474 0.0043267354    109.01559    47.088573 
  995000    3689.9939   0.26096915    21.120936 0.0048788836          0.2    11.011133 0.0039196458    110.20025    46.165188 
  995100    3690.3859   0.26027006    21.123049 0.0048788836          0.2    11.162945 0.0039198574    112.60678     45.24171 
  995200    3690.7779    0.2608489    21.124716 0.0048788836          0.2    11.319951 0.0039195598    109.14731    44.318376 
  995300     3691.176   0.26006072    21.127083 0.0048788836          0.2    11.479172 0.0042958288    108.58907    43.395065 
  995400    3691.6028   0.25949198    21.129689 0.0048788836          0.2    11.649894 0.0042345587    108.70108     42.47175 
  995500    3692.0235   0.26036284    21.132011 0.0048788836          0.2    11.835832 0.0041674638    107.99883    41.548463 
  995600    3692.4389    0.2605682    21.134262 0.0048788836          0.2    11.882043 0.0041332368     107.9501    40.625178 
  995700    3692.8498    0.2603004    21.137025 0.0048788836          0.2     12.02428 0.0040931934    109.64586    39.701829 
  995800    3693.2568   0.26064138    21.139215 0.0048788836          0.2    12.185205 0.0040407585    108.53863    38.778523 
  995900    3693.6585   0.25932349    21.141228 0.0048788836          0.2    12.346294 0.0039895923    107.91386    37.855239 
  996000    3694.0539   0.25967074    21.143584 0.0048788836          0.2    12.617949 0.0039178961    106.63209    36.931998 
  996100    3694.4437   0.26015275    21.145363 0.0048788836          0.2    12.771729 0.0038725128    107.20551    36.008735 
  996200    3694.8289   0.25968195    21.147427 0.0048788836          0.2    12.925811 0.0038273273    107.79718    35.085451 
  996300    3695.2097   0.26027461    21.149345 0.0048788836          0.2    13.064788 0.0037895461    107.57859    34.162173 
  996400    3695.5867   0.25976286    21.151355 0.0048788836          0.2    13.167468 0.0037550848    109.04008    33.238849 
  996500    3695.9605   0.25968755    21.153184 0.0048788836          0.2    13.308821 0.0037162295    108.21341     32.31555 
  996600    3696.3303   0.25969096    21.154977 0.0048788836          0.2    13.456746  0.003676244    108.85562    31.392233 
  996700    3696.6962   0.25981516    21.157066 0.0048788836          0.2    13.603605 0.0036373094    108.26916    30.468933 
  996800    3697.0583   0.26112152    21.158998 0.0048788836          0.2     13.74763 0.0035998612    109.02523    29.545612 
  996900    3697.4166   0.26001748    21.160945 0.0048788836          0.2    13.890421 0.0035636172    107.81125    28.622325 
  997000    3697.7714   0.26060957    21.162781 0.0048788836          0.2    14.032326 0.0035282855    107.54491    27.699044 
  997100    3698.1227   0.26109437    21.164869 0.0048788836          0.2    14.172837  0.003493978     107.7563    26.775756 
  997200    3698.4705   0.25996442    21.167122 0.0048788836          0.2    14.315449 0.0034593667    107.89675    25.852464 
  997300    3698.8148   0.26090249    21.169138 0.0048788836          0.2    14.424586 0.0034275533    108.38076     24.92916 
  997400    3699.1559   0.26101052    21.170967 0.0048788836          0.2    14.490388 0.0033916281    107.86637    24.005868 
  997500    3699.4936   0.26133326    21.172826 0.0048788836          0.2    14.866282 0.0033501287    109.59913    23.082538 
  997600    3699.8407   0.25997536     21.17469 0.0048788836          0.2    13.117985 0.0034944706    109.81084    22.159206 
  997700    3700.1892   0.26099275    21.176714 0.0048788836          0.2    13.257378 0.0034730585    107.32283    21.235925 
  997800    3700.5355   0.25967852     21.17885 0.0048788836          0.2    13.395917 0.0034518459    109.03259    20.312611 
  997900    3700.8798   0.26027338    21.180974 0.0048788836          0.2    13.533612  0.003430836    107.48146    19.389325 
  998000    3701.2218   0.26026656    21.183128 0.0048788836          0.2    13.670437 0.0034080595    107.32228    18.466041 
  998100    3701.5707   0.26034326    21.184925 0.0048788836          0.2    13.809968 0.0035588232    108.53967    17.542735 
  998200    3701.9296   0.26019686    21.187072 0.0048788836          0.2    13.951427 0.0035825067    108.16376    16.619435 
  998300    3702.2862   0.25875497    21.189364 0.0048788836          0.2    14.102306 0.0035441559     107.6285    15.696143 
  998400    3702.6389   0.25889098    21.191509 0.0048788836          0.2    14.247593 0.0035080763    108.00864    14.772845 
  998500    3702.9929   0.26000355    21.193444 0.0048788836          0.2    13.167079 0.0037095164    109.03852    13.849533 
  998600    3703.3783   0.26072291    21.195694 0.0048788836          0.2    12.818565 0.0038620535    109.36132    12.926218 
  998700    3703.7625   0.25926678    21.198523 0.0048788836          0.2    12.971805 0.0038173258     107.4181    12.002927 
  998800    3704.1422    0.2595734    21.200954 0.0048788836          0.2    13.123712  0.003773974    109.09706    11.079617 
  998900    3704.5177   0.26062806    21.203583 0.0048788836          0.2    13.273912 0.0037320581    107.91105    10.156319 
  999000    3704.8891   0.26154617    21.205584 0.0048788836          0.2     13.42246 0.0036915007    106.18924    9.2330357 
  999100    3705.2565   0.25887869    21.207794 0.0048788836          0.2    13.569409 0.0036522303    107.90072    8.3097353 
  999200      3705.62   0.26063033    21.209732 0.0048788836          0.2     13.71481 0.0036141804    108.14131    7.3864325 
  999300    3705.9796   0.25964355      21.2121 0.0048788836          0.2    13.895221 0.0035691309    107.17792    6.4631352 
  999400    3706.3349   0.26061082    21.213534 0.0048788836          0.2    14.044451 0.0035337263    109.32116    5.5398251 
  999500    3706.6867   0.26123406     21.21508 0.0048788836          0.2    14.185519 0.0034990856    108.73157    4.6165191 
  999600    3707.0405   0.26069749    21.217042 0.0048788836          0.2    12.629723 0.0037151102    109.64589    3.6932108 
  999700    3707.4098   0.26091206    21.218689 0.0048788836          0.2       12.784 0.0036630092    107.29796    2.7699107 
  999800    3707.7894   0.25889635    21.220729 0.0048788836          0.2    12.288512 0.0038993561    110.37334    1.8466037 
  999900    3708.1776   0.26033547    21.222502 0.0048788836          0.2    11.796069 0.0038581424    107.64032    0.9233024 
 1000000     3708.565   0.25933383    21.224908 0.0048788836          0.2    11.818536 0.0038610379    107.68747            0 
Loop time of 9233.03 on 4 procs for 1000000 steps with 174392 atoms

Performance: 36130.469 tau/day, 108.307 timesteps/s
249.3% CPU use with 1 MPI tasks x 4 OpenMP threads

MPI task timing breakdown:
Section |  min time  |  avg time  |  max time  |%varavg| %total
---------------------------------------------------------------
Pair    | 3501.6     | 3501.6     | 3501.6     |   0.0 | 37.92
Neigh   | 144.24     | 144.24     | 144.24     |   0.0 |  1.56
Comm    | 1229.9     | 1229.9     | 1229.9     |   0.0 | 13.32
Output  | 26.512     | 26.512     | 26.512     |   0.0 |  0.29
Modify  | 3644.7     | 3644.7     | 3644.7     |   0.0 | 39.47
Other   |            | 686.1      |            |       |  7.43

Nlocal:    174392 ave 174392 max 174392 min
Histogram: 1 0 0 0 0 0 0 0 0 0
Nghost:    66616 ave 66616 max 66616 min
Histogram: 1 0 0 0 0 0 0 0 0 0
Neighs:    0 ave 0 max 0 min
Histogram: 1 0 0 0 0 0 0 0 0 0

Total # of neighbors = 0
Ave neighs/atom = 0
Neighbor list builds = 327002
Dangerous builds = 0

Please see the log.cite file for references relevant to this simulation

Total wall time: 2:34:33
