#package gpu 1
#suffix gpu
# variable rho equal 0.03

units lj
atom_style atomic

lattice fcc 0.975
Lattice spacing in x,y,z = 1.60085 1.60085 1.60085
region box block 0 60 0 30 0 30
create_box 2 box
Created orthogonal box = (0 0 0) to (96.0513 48.0256 48.0256)
  1 by 1 by 1 MPI processor grid
create_atoms 1 box
Created 216000 atoms
  Time spent = 0.0434139 secs
mass 1 4.0
mass 2 0.5


pair_style lj/cut 2.5
pair_coeff 1 1 1.0 1.0 2.5
pair_coeff 2 2 0.5 0.88 2.5
pair_coeff 1 2 0.2 1.0 2.5
#pair_coeff 1 2 1.5 0.8 2.5
pair_modify mix geometric
neigh_modify every 1 delay 0 check yes

variable R equal 12
region cylinder1 cylinder x $(0.5*ly) $(0.5*lz) $R EDGE EDGE units box
region cylinder1 cylinder x 24.012813670346833561 $(0.5*lz) $R EDGE EDGE units box
region cylinder1 cylinder x 24.012813670346833561 24.012813670346833561 $R EDGE EDGE units box
region cylinder1 cylinder x 24.012813670346833561 24.012813670346833561 12 EDGE EDGE units box

group cylinder1 region cylinder1
41820 atoms in group cylinder1
variable V equal PI*v_R*v_R*lx
# variable rho equal 0.1
variable natoms equal $V*${rho}
variable natoms equal 43452.5639148185*${rho}
variable natoms equal 43452.5639148185*0.15
variable natoms_in_cylinder equal count(cylinder1)
variable delete_fraction equal (${natoms_in_cylinder}-${natoms})/${natoms_in_cylinder}
variable delete_fraction equal (41820-${natoms})/${natoms_in_cylinder}
variable delete_fraction equal (41820-6517.88458722277)/${natoms_in_cylinder}
variable delete_fraction equal (41820-6517.88458722277)/41820
set group cylinder1 type 2
  41820 settings made for type
delete_atoms porosity cylinder1 ${delete_fraction} 12345
delete_atoms porosity cylinder1 0.84414431881342 12345
Deleted 35253 atoms, new total = 180747
#delete_atoms region cylinder1

region cylinder2 cylinder x $(0.5*ly) $(0.5*lz) $(v_R+6) EDGE EDGE units box
region cylinder2 cylinder x 24.012813670346833561 $(0.5*lz) $(v_R+6) EDGE EDGE units box
region cylinder2 cylinder x 24.012813670346833561 24.012813670346833561 $(v_R+6) EDGE EDGE units box
region cylinder2 cylinder x 24.012813670346833561 24.012813670346833561 18 EDGE EDGE units box
region cylinder3 cylinder x $(0.5*ly) $(0.5*lz) $(v_R+11) EDGE EDGE units box
region cylinder3 cylinder x 24.012813670346833561 $(0.5*lz) $(v_R+11) EDGE EDGE units box
region cylinder3 cylinder x 24.012813670346833561 24.012813670346833561 $(v_R+11) EDGE EDGE units box
region cylinder3 cylinder x 24.012813670346833561 24.012813670346833561 23 EDGE EDGE units box
group cylinder2 region cylinder2
60567 atoms in group cylinder2
group cylinder3 region cylinder3
120327 atoms in group cylinder3

group nve region cylinder3
120327 atoms in group nve
group langevin subtract cylinder3 cylinder2
59760 atoms in group langevin
group frozen subtract all cylinder3
60420 atoms in group frozen

region force cylinder x $(0.5*ly) $(0.5*lz) $(v_R-1) EDGE EDGE units box
region force cylinder x 24.012813670346833561 $(0.5*lz) $(v_R-1) EDGE EDGE units box
region force cylinder x 24.012813670346833561 24.012813670346833561 $(v_R-1) EDGE EDGE units box
region force cylinder x 24.012813670346833561 24.012813670346833561 11 EDGE EDGE units box
group inner dynamic all region cylinder1 every 1
dynamic group inner defined
#group gas dynamic all region force every 1
group gas type 2
6567 atoms in group gas

fix nve nve nve
fix langevin langevin langevin 0.50 0.50 1.0 12345 zero yes

variable gascount equal count(gas)

variable dP equal 0.001
variable measured_rho equal mass(gas)/(PI*(v_R-1)*(v_R-1)*lx)
variable force equal v_dP/v_measured_rho
variable force equal v_dP/v_rho

velocity all create 0.1 87287
velocity frozen set 0 0 0

compute chunk all chunk/atom bin/cylinder x lower $(lx) $(0.5*ly) $(0.5*lz) 0 $(v_R+5) 30 units box
compute chunk all chunk/atom bin/cylinder x lower 96.051254681387334244 $(0.5*ly) $(0.5*lz) 0 $(v_R+5) 30 units box
compute chunk all chunk/atom bin/cylinder x lower 96.051254681387334244 24.012813670346833561 $(0.5*lz) 0 $(v_R+5) 30 units box
compute chunk all chunk/atom bin/cylinder x lower 96.051254681387334244 24.012813670346833561 24.012813670346833561 0 $(v_R+5) 30 units box
compute chunk all chunk/atom bin/cylinder x lower 96.051254681387334244 24.012813670346833561 24.012813670346833561 0 17 30 units box

compute displacement nve displace/atom
compute mean_displacement nve reduce ave c_displacement[4]

compute vmax all reduce max vx
variable volume equal count(gas)/v_V

thermo_style custom step time temp c_mean_displacement v_volume v_force c_vmax dt spcpu cpuremain
thermo 100

compute keAtom all ke/atom
dump dump all custom 1000 trajectory.bin id type x y z c_keAtom

fix flow gas addforce v_force 0.0 0.0
run 5000
No /omp style for force computation currently active
Per MPI rank memory allocation (min/avg/max) = 90.73 | 90.73 | 90.73 Mbytes
Step Time Temp c_mean_displacement v_volume v_force c_vmax Dt S/CPU CPULeft 
       0            0  0.066612847            0   0.15113032 0.0066666667   0.77506977        0.005            0            0 
     100          0.5  0.099787952  0.071790983   0.15113032 0.0066666667    1.9922956        0.005    103.09694    47.528132 
     200            1   0.14709126   0.11656538   0.15113032 0.0066666667    2.7233566        0.005    103.98501    46.359335 
     300          1.5   0.17172305   0.16141497   0.15113032 0.0066666667    2.2864537        0.005    103.39722    45.414267 
     400            2   0.18972334   0.19822982   0.15113032 0.0066666667    2.6737861        0.005    103.66101    44.429859 
     500          2.5   0.20186872   0.22764399   0.15113032 0.0066666667    2.5989845        0.005    103.34377     43.47999 
     600            3   0.21033028   0.24908439   0.15113032 0.0066666667    3.0086293        0.005    103.11724    42.539779 
     700          3.5   0.21609459   0.26190374   0.15113032 0.0066666667    3.4502245        0.005    103.71615    41.556735 
     800            4   0.22112075   0.26681945   0.15113032 0.0066666667     2.965915        0.005     102.9171    40.617712 
     900          4.5   0.22836637   0.26521996   0.15113032 0.0066666667    2.6820536        0.005    102.93943    39.670465 
    1000            5   0.23403109   0.26022306   0.15113032 0.0066666667    3.1147297        0.005    101.32863    38.780156 
    1100          5.5   0.23943771   0.25441181   0.15113032 0.0066666667    3.1606702        0.005     101.2201    37.876037 
    1200            6   0.24325128   0.25051389   0.15113032 0.0066666667    3.1641751        0.005    101.20731    36.958344 
    1300          6.5   0.24726223   0.24967611   0.15113032 0.0066666667    3.0569774        0.005    102.45983    35.995444 
    1400            7   0.25018618   0.25327269   0.15113032 0.0066666667    3.2487903        0.005    102.57788    35.027787 
    1500          7.5   0.25313069   0.26050643   0.15113032 0.0066666667    3.1979128        0.005    101.63523    34.080265 
    1600            8   0.25599724   0.26918333   0.15113032 0.0066666667    2.7956005        0.005    102.08403    33.119003 
    1700          8.5   0.25978352   0.27857619   0.15113032 0.0066666667    3.3281431        0.005    102.34598    32.150716 
    1800            9    0.2641026   0.28667707   0.15113032 0.0066666667    3.1142552        0.005    102.30337    31.182179 
    1900          9.5   0.26780039   0.29437181   0.15113032 0.0066666667    3.0499251        0.005    101.73199    30.221657 
    2000           10   0.27198876    0.3016275   0.15113032 0.0066666667     2.881802        0.005     100.9797    29.269872 
    2100         10.5   0.27510203   0.30922077   0.15113032 0.0066666667    2.8425493        0.005    99.787545     28.33076 
    2200           11   0.27888374   0.31721841   0.15113032 0.0066666667    2.8875007        0.005    101.65331    27.362509 
    2300         11.5   0.28017379   0.32659657   0.15113032 0.0066666667     3.366086        0.005    101.87127     26.39044 
    2400           12   0.28262072   0.33606949   0.15113032 0.0066666667    3.1358337        0.005    102.21678     25.41398 
    2500         12.5   0.28533459   0.34586338   0.15113032 0.0066666667    3.0860625        0.005    101.80105    24.441366 
    2600           13   0.28676299   0.35467146   0.15113032 0.0066666667    3.1226837        0.005    102.09834    23.465367 
    2700         13.5   0.28832048   0.36244116   0.15113032 0.0066666667    3.7303022        0.005    101.76531    22.491842 
    2800           14   0.29054763   0.36877495   0.15113032 0.0066666667    2.8376481        0.005    101.46907     21.51992 
    2900         14.5   0.29105454   0.37393871   0.15113032 0.0066666667    2.9714979        0.005    100.74409    20.552195 
    3000           15   0.29193169    0.3786595   0.15113032 0.0066666667    3.3417915        0.005    100.02962    19.587539 
    3100         15.5    0.2933238    0.3826687   0.15113032 0.0066666667    3.1303438        0.005    101.03867      18.6145 
    3200           16    0.2931836   0.38618244   0.15113032 0.0066666667     3.513277        0.005     102.6078    17.631907 
    3300         16.5   0.29591539   0.38974302   0.15113032 0.0066666667    3.4805557        0.005    101.98181     16.65288 
    3400           17   0.29714573   0.39307788   0.15113032 0.0066666667    3.2420895        0.005    100.84731    15.678954 
    3500         17.5    0.2976574   0.39774689   0.15113032 0.0066666667    3.6587764        0.005     100.7576    14.704396 
    3600           18    0.2998304   0.40235467   0.15113032 0.0066666667    3.4725995        0.005    101.44374    13.726232 
    3700         18.5   0.30059907   0.40784435   0.15113032 0.0066666667    3.8855447        0.005     100.7223    12.750138 
    3800           19   0.30156201   0.41345965   0.15113032 0.0066666667    3.2067198        0.005    101.20853    11.771657 
    3900         19.5   0.30236984   0.41963966   0.15113032 0.0066666667    3.6948371        0.005    100.27374    10.795283 
    4000           20    0.3046291   0.42568852   0.15113032 0.0066666667    3.3912417        0.005     101.0682    9.8159037 
    4100         20.5    0.3064136   0.43177132   0.15113032 0.0066666667    3.5186765        0.005    100.38992    8.8375019 
    4200           21   0.30761452   0.43827682   0.15113032 0.0066666667    3.0361262        0.005    100.92396    7.8572526 
    4300         21.5   0.30820057    0.4447629   0.15113032 0.0066666667    3.4439565        0.005    101.17125    6.8761161 
    4400           22   0.30866593   0.45161177   0.15113032 0.0066666667    3.2761505        0.005    100.34155     5.895763 
    4500         22.5   0.30959807   0.45829058   0.15113032 0.0066666667    3.4265551        0.005    101.99806    4.9128896 
    4600           23   0.31010438   0.46553414   0.15113032 0.0066666667    3.7249034        0.005     101.5482    3.9305009 
    4700         23.5   0.31049831   0.47176406   0.15113032 0.0066666667    3.4687274        0.005    99.993492    2.9489888 
    4800           24   0.31138432   0.47775244   0.15113032 0.0066666667    3.2534043        0.005    99.954935    1.9667198 
    4900         24.5   0.31313583   0.48367378   0.15113032 0.0066666667    4.0174025        0.005    100.63957   0.98356982 
    5000           25    0.3135085   0.48922966   0.15113032 0.0066666667      3.38628        0.005    98.865603            0 
Loop time of 49.2064 on 4 procs for 5000 steps with 180747 atoms

Performance: 43896.720 tau/day, 101.613 timesteps/s
229.2% CPU use with 1 MPI tasks x 4 OpenMP threads

MPI task timing breakdown:
Section |  min time  |  avg time  |  max time  |%varavg| %total
---------------------------------------------------------------
Pair    | 17.116     | 17.116     | 17.116     |   0.0 | 34.78
Neigh   | 0.37782    | 0.37782    | 0.37782    |   0.0 |  0.77
Comm    | 4.5431     | 4.5431     | 4.5431     |   0.0 |  9.23
Output  | 0.16363    | 0.16363    | 0.16363    |   0.0 |  0.33
Modify  | 23.621     | 23.621     | 23.621     |   0.0 | 48.00
Other   |            | 3.385      |            |       |  6.88

Nlocal:    180747 ave 180747 max 180747 min
Histogram: 1 0 0 0 0 0 0 0 0 0
Nghost:    67015 ave 67015 max 67015 min
Histogram: 1 0 0 0 0 0 0 0 0 0
Neighs:    0 ave 0 max 0 min
Histogram: 1 0 0 0 0 0 0 0 0 0

Total # of neighbors = 0
Ave neighs/atom = 0
Neighbor list builds = 606
Dangerous builds = 0

reset_timestep 0
fix vx all ave/chunk 10 10000 100000 chunk vx ave running file velocity.txt

fix dt all dt/reset 10 NULL NULL 0.05 units box

run 100000
No /omp style for force computation currently active
Per MPI rank memory allocation (min/avg/max) = 100.7 | 100.7 | 100.7 Mbytes
Step Time Temp c_mean_displacement v_volume v_force c_vmax Dt S/CPU CPULeft 
       0           25    0.3135085   0.48922966   0.15113032 0.0066666667      3.38628  0.010951148            0            0 
     100     26.14513   0.31309799   0.50212505   0.15113032 0.0066666667    3.5087602  0.010736303    86.580625     1153.839 
     200     27.28108   0.31439289   0.51348282   0.15113032 0.0066666667    3.3399209  0.012108688    86.514244    1153.1255 
     300    28.476397    0.3155357   0.52620163   0.15113032 0.0066666667    4.0173026  0.011929706    86.119662    1153.8772 
     400    29.654632   0.31652221   0.53959025   0.15113032 0.0066666667    3.3487819  0.012019978    86.308163    1153.0411 
     500    30.870878   0.31676217   0.55271334   0.15113032 0.0066666667    4.1303567  0.010293745    87.404933    1149.1826 
     600    32.026065   0.31913491   0.56677256   0.15113032 0.0066666667    3.2800193   0.01143652    86.871236    1147.3934 
     700    33.201277   0.32177511   0.58107066   0.15113032 0.0066666667    3.1686157  0.012212353    87.885448    1143.9021 
     800     34.37194   0.32273217    0.5936963   0.15113032 0.0066666667     3.496011  0.011243204    87.175961    1142.1474 
     900    35.534808   0.32233427   0.60604896   0.15113032 0.0066666667    3.9236135  0.011422876    88.788201    1138.2341 
    1000    36.714981   0.32300281   0.61839225   0.15113032 0.0066666667    3.5064852  0.012209684     87.24534    1136.8502 
    1100     37.84695   0.32376308   0.63130459   0.15113032 0.0066666667    4.0484128  0.011455695    87.118254    1135.6597 
    1200    38.965863   0.32379817   0.64375954   0.15113032 0.0066666667    3.7941478 0.0098773216     87.49296    1134.0715 
    1300     40.08599    0.3236936   0.65709692   0.15113032 0.0066666667    3.4805242  0.011695775    87.913411     1132.137 
    1400    41.303535   0.32426078   0.67160218   0.15113032 0.0066666667    4.0426974  0.010264858    88.126461    1130.1226 
    1500    42.413177   0.32438087   0.68473397   0.15113032 0.0066666667    3.4822489  0.012151693    88.216783    1128.1491 
    1600    43.568293   0.32609545   0.69843603   0.15113032 0.0066666667    4.1783593  0.011753006    86.431844    1127.7204 
    1700    44.703817   0.32536068   0.71135838   0.15113032 0.0066666667    3.8072208  0.011347981    87.429019    1126.4429 
    1800    45.825746   0.32567185    0.7234989   0.15113032 0.0066666667    4.2840417  0.010799378     85.71442    1126.4286 
    1900    46.895109   0.32797922   0.73443386   0.15113032 0.0066666667     3.685982   0.01107481    86.409051    1125.8087 
    2000    48.024656   0.32699091   0.74779409   0.15113032 0.0066666667    3.6916125  0.011108395    86.828633     1124.861 
    2100    49.158512   0.32678238   0.76077038   0.15113032 0.0066666667    3.2706323  0.011361255     86.99448    1123.7915 
    2200    50.277642   0.32636137   0.77348178   0.15113032 0.0066666667    4.0310614   0.01174125    87.149172    1122.6241 
    2300     51.43132   0.32608241   0.78600032   0.15113032 0.0066666667      3.41721  0.011532309    86.947664    1121.5714 
    2400    52.579713   0.32779726    0.7979338   0.15113032 0.0066666667    3.6068033  0.011553744    86.538735    1120.7315 
    2500    53.674302   0.32850893   0.81031561   0.15113032 0.0066666667    4.3242204  0.010059782    87.001608    1119.6267 
    2600    54.741602   0.32855925   0.82241229   0.15113032 0.0066666667    3.7940704  0.011176702    88.787487    1117.6523 
    2700    55.882447    0.3277804   0.83515819   0.15113032 0.0066666667    4.0203866   0.01083318    88.489704    1115.8773 
    2800    57.003681    0.3280587   0.84827998   0.15113032 0.0066666667    3.9896538  0.011472081     87.48285    1114.5999 
    2900    58.161263   0.32918743   0.86086505   0.15113032 0.0066666667    4.1727403  0.011682282    87.879574     1113.159 
    3000     59.33352   0.32890748   0.87373793   0.15113032 0.0066666667    3.7836895  0.011540396    87.737695    1111.7978 
    3100    60.463431   0.32923677   0.88669981   0.15113032 0.0066666667    3.6003503  0.011962841    85.929694    1111.2005 
    3200    61.560058   0.32801622   0.89934046   0.15113032 0.0066666667     3.840337  0.012509001    86.233281    1110.4438 
    3300    62.737518   0.32987962   0.91310199   0.15113032 0.0066666667    3.6734876  0.011868081    87.346631    1109.2296 
    3400    63.860865   0.32932585   0.92622543   0.15113032 0.0066666667    3.6587399  0.010399409    87.136842    1108.0977 
    3500    64.921963   0.32943017   0.93966427   0.15113032 0.0066666667    4.8205959  0.010176606    88.663256    1106.4203 
    3600    66.037818   0.32888226    0.9540679   0.15113032 0.0066666667    3.4910034  0.011813506    88.776906    1104.7347 
    3700      67.0727   0.33035828   0.96669848   0.15113032 0.0066666667    3.7003086 0.0093964451    87.911937    1103.3677 
    3800    68.027715   0.33086557   0.97908655   0.15113032 0.0066666667    4.2627183  0.010063417    89.091463    1101.6317 
    3900    69.093405    0.3309999   0.99272736   0.15113032 0.0066666667    3.5210502  0.010417363    88.509124     1100.109 
    4000    70.192917   0.33143644    1.0056248   0.15113032 0.0066666667    3.9623477  0.010731445    86.135916    1099.3531 
    4100    71.347351   0.33029417    1.0209723   0.15113032 0.0066666667     3.643764  0.012027136    87.815655     1098.058 
    4200    72.482716   0.33147261    1.0343647   0.15113032 0.0066666667    4.0406399  0.011349034    87.243216    1096.9407 
    4300    73.582324   0.32995401    1.0485899   0.15113032 0.0066666667    3.9232468  0.010815696    86.541716     1096.029 
    4400    74.580863   0.33102973    1.0614012   0.15113032 0.0066666667    3.4089082 0.0098232731    87.950594    1094.7039 
    4500     75.63341   0.33100872    1.0756016   0.15113032 0.0066666667    4.0423183   0.01078607    88.309745    1093.2891 
    4600    76.732146   0.33010548    1.0897251   0.15113032 0.0066666667    3.7021553  0.011267782    88.027011     1091.962 
    4700    77.837803   0.33076651    1.1041872   0.15113032 0.0066666667    3.9754227  0.012287896    88.004146     1090.649 
    4800    78.986322   0.33173773     1.118594   0.15113032 0.0066666667    4.2999204  0.011202299    88.485951    1089.2207 
    4900    80.109684   0.33108062    1.1336715   0.15113032 0.0066666667    3.6357495  0.010503882    88.403965    1087.8248 
    5000    81.233617   0.33182604    1.1488629   0.15113032 0.0066666667    4.2301329  0.011218946    86.397108    1086.9388 
    5100    82.393002   0.33156756    1.1657141   0.15113032 0.0066666667    3.5721943  0.012152708     89.07695    1085.3942 
    5200    83.554879    0.3305325     1.183246   0.15113032 0.0066666667    3.9620496  0.011144958    85.477012    1084.7278 
    5300    84.660222   0.33049134    1.1987599   0.15113032 0.0066666667    3.8558274  0.012082787    87.529733    1083.5521 
    5400    85.781824   0.33204203    1.2141902   0.15113032 0.0066666667    3.7990294  0.011525994    87.252726    1082.4412 
    5500    86.888358   0.33037999    1.2304188   0.15113032 0.0066666667    4.2882618  0.011129313    87.967841     1081.169 
    5600     87.99611   0.33107274    1.2462362   0.15113032 0.0066666667     4.289746  0.011067241     87.14689    1080.0821 
    5700    89.096748   0.33230325    1.2607837   0.15113032 0.0066666667    4.3212065    0.0109519    87.332427    1078.9528 
    5800    90.160739   0.33154821    1.2755017   0.15113032 0.0066666667    3.5355745  0.011073655    86.926887    1077.9096 
    5900    91.281315   0.33189298    1.2907003   0.15113032 0.0066666667    3.9467811  0.010269334    86.844993    1076.8802 
    6000    92.304625   0.33242897    1.3050268   0.15113032 0.0066666667    4.4505863   0.01043071    87.679297     1075.675 
    6100    93.316734   0.33265496    1.3191998   0.15113032 0.0066666667    3.7853641  0.010314179    87.021517    1074.6047 
    6200    94.411596   0.33181268    1.3345504   0.15113032 0.0066666667    4.0248184  0.010913852    87.275276    1073.4812 
    6300    95.518186   0.33358794    1.3496065   0.15113032 0.0066666667    4.4761446  0.010169496     87.83765    1072.2479 
    6400    96.645495   0.33131654    1.3655321   0.15113032 0.0066666667    3.7495421  0.011280018    87.614699      1071.06 
    6500    97.759429    0.3327997    1.3806445   0.15113032 0.0066666667    4.1522581  0.011799667    87.403038    1069.9133 
    6600    98.848583   0.33259458    1.3958483   0.15113032 0.0066666667    3.9963409 0.0095381816    87.085931    1068.8256 
    6700    99.919604   0.33200054      1.41146   0.15113032 0.0066666667    4.0580041   0.01136806    88.521901    1067.4767 
    6800     101.0447   0.33216986    1.4265835   0.15113032 0.0066666667    3.9288872  0.011136454    87.511963    1066.3129 
    6900    102.11371   0.33234004    1.4409614   0.15113032 0.0066666667    3.8615291  0.010783733    87.692899    1065.1179 
    7000    103.14908    0.3323279    1.4543734   0.15113032 0.0066666667    3.6306382   0.01121483    87.474293    1063.9624 
    7100    104.25258   0.33245775    1.4686957   0.15113032 0.0066666667    3.6671295  0.010989808    87.403967    1062.8192 
    7200    105.36661   0.33146286    1.4829221   0.15113032 0.0066666667    3.5862516  0.011497698    88.121554    1061.5559 
    7300    106.46957   0.33243281    1.4970809   0.15113032 0.0066666667      3.88697   0.01036732    87.641812    1060.3751 
    7400    107.56807    0.3327638    1.5110186   0.15113032 0.0066666667    4.0735885  0.011375237    87.278999    1059.2546 
    7500    108.68717   0.33188997    1.5245538   0.15113032 0.0066666667    3.7939423  0.010825453    87.259661    1058.1366 
    7600    109.77333   0.33308585    1.5376329   0.15113032 0.0066666667    3.6031362  0.010019776     87.48316    1056.9823 
    7700    110.86953   0.33276186     1.550459   0.15113032 0.0066666667    3.5047588  0.010578043    87.821447    1055.7755 
    7800    111.96878    0.3333664    1.5632737   0.15113032 0.0066666667    3.8812339  0.011301992    88.478578    1054.4705 
    7900    113.08458   0.33267286    1.5779263   0.15113032 0.0066666667     3.917255 0.0096806744    86.660373    1053.4463 
    8000    114.13617   0.33226903    1.5906852   0.15113032 0.0066666667    3.7872371  0.010151637    86.711164    1052.4112 
    8100    115.15869   0.33378869    1.6020493   0.15113032 0.0066666667    3.8266807  0.011236029    87.184949     1051.302 
    8200    116.22857   0.33341134     1.613871   0.15113032 0.0066666667    3.6916897  0.010335103     86.77625    1050.2524 
    8300    117.27815    0.3323795    1.6260607   0.15113032 0.0066666667    3.8345689  0.010302232    87.704928    1049.0654 
    8400    118.37717   0.33180239    1.6392948   0.15113032 0.0066666667    3.6025097  0.010883431    88.086003    1047.8258 
    8500    119.49643   0.33240431    1.6531777   0.15113032 0.0066666667     3.907039  0.011319229    87.876168    1046.6179 
    8600    120.61165   0.33231777    1.6665892   0.15113032 0.0066666667    3.6877277  0.011575913    88.178986      1045.37 
    8700    121.71055   0.33226119    1.6799905   0.15113032 0.0066666667    3.7111605  0.010463004    87.289752     1044.246 
    8800    122.78098   0.33251069    1.6936586   0.15113032 0.0066666667    4.0660428  0.010506258    87.410743     1043.105 
    8900    123.85437   0.33363476    1.7067573   0.15113032 0.0066666667    3.8731367   0.01076038    86.674718    1042.0635 
    9000     124.9234   0.33185066    1.7197029   0.15113032 0.0066666667    3.9542269  0.010435999    86.157431    1041.0895 
    9100     126.0319   0.33380959    1.7330639   0.15113032 0.0066666667    4.0244502  0.011578137     87.81196    1039.8929 
    9200    127.17902   0.33345351    1.7470164   0.15113032 0.0066666667    3.9136649  0.011728161    86.808721    1038.8275 
    9300    128.24968   0.33389732    1.7584747   0.15113032 0.0066666667    3.7241877  0.011541863     86.74757    1037.7681 
    9400    129.37123   0.33308953    1.7710683   0.15113032 0.0066666667    3.4725431  0.010593385    85.937089    1036.8116 
    9500     130.4795   0.33309398    1.7841611   0.15113032 0.0066666667    3.5111694  0.010427187    87.251274    1035.6837 
    9600    131.55711   0.33356625    1.7968116   0.15113032 0.0066666667    3.5467428  0.010122772    87.127755    1034.5707 
    9700    132.60839   0.33230691    1.8091491   0.15113032 0.0066666667    4.3070944  0.010588434    87.252726    1033.4417 
    9800    133.69571   0.33143973    1.8223349   0.15113032 0.0066666667    4.1440491  0.011490297    86.995707    1032.3435 
    9900    134.80682   0.33185439    1.8349058   0.15113032 0.0066666667    3.7588176  0.010399288    86.910568    1031.2546 
   10000    135.86075    0.3331397     1.848041   0.15113032 0.0066666667     3.628057  0.011162812     87.64227    1030.0779 
   10100    136.97724   0.33313731    1.8614292   0.15113032 0.0066666667    3.6378744  0.011188727    86.846486     1028.995 
   10200    138.10561   0.33215285    1.8744053   0.15113032 0.0066666667    3.8351129  0.010937172    86.762697    1027.9206 
   10300    139.18059   0.33166571    1.8862585   0.15113032 0.0066666667    3.5856957  0.011224048    87.719309    1026.7352 
   10400    140.27239   0.33160821    1.8986123   0.15113032 0.0066666667     3.753968  0.010652887    86.952062    1025.6373 
   10500    141.31459   0.33229679    1.9102664   0.15113032 0.0066666667     4.003009 0.0098364434    85.608454    1024.6923 
   10600    142.36113   0.33224562    1.9223831   0.15113032 0.0066666667    4.0777723  0.010163374    87.604872    1023.5186 
   10700    143.47577   0.33148731    1.9353963   0.15113032 0.0066666667    4.1100745  0.011533973     86.68973     1022.446 
   10800    144.60081   0.33290437    1.9496739   0.15113032 0.0066666667    4.3235214  0.010854556    87.004188    1021.3375 
   10900    145.69968   0.33247255    1.9620457   0.15113032 0.0066666667    4.1001865  0.011060859    87.903277    1020.1321 
   11000    146.76654   0.33348896    1.9745563   0.15113032 0.0066666667    4.0096128  0.011205564    86.836237    1019.0411 
   11100    147.87544   0.33272284     1.988155   0.15113032 0.0066666667    3.5635081  0.012421604    87.446754    1017.8846 
   11200    149.03359   0.33186815    2.0016634   0.15113032 0.0066666667    4.0273587  0.011489215     87.17886    1016.7562 
   11300    150.13486   0.33141182      2.01509   0.15113032 0.0066666667    3.6065743 0.0093926403    86.555736    1015.6923 
   11400    151.11954   0.33219141    2.0269523   0.15113032 0.0066666667    3.8790303  0.010113408    87.886369    1014.4908 
   11500    152.16596    0.3314563    2.0384997   0.15113032 0.0066666667    3.7721719  0.010893743    86.858032    1013.3941 
   11600    153.22747   0.33351461    2.0508261   0.15113032 0.0066666667    3.5935155  0.010857318    87.238789    1012.2582 
   11700    154.31296   0.33371165    2.0622592   0.15113032 0.0066666667     4.712943  0.010570545    85.655815     1011.282 
   11800    155.41664   0.33240094    2.0749725   0.15113032 0.0066666667    3.5845353  0.010509544    88.387012    1010.0329 
   11900    156.54932   0.33285715      2.08878   0.15113032 0.0066666667    3.9391041  0.011598229     87.10597    1008.9089 
   12000     157.6942    0.3325957    2.1021322   0.15113032 0.0066666667    4.0409742  0.010413216    86.427427    1007.8507 
   12100      158.786   0.33274218    2.1155558   0.15113032 0.0066666667    4.0908866  0.011272567    85.231805    1006.9087 
   12200    159.90252   0.33189041    2.1290604   0.15113032 0.0066666667    3.6330727  0.011337924    87.192924     1005.773 
   12300    160.99863   0.33252688    2.1423693   0.15113032 0.0066666667    4.6898263  0.010313922     88.14387    1004.5489 
   12400    162.07649    0.3330218    2.1558486   0.15113032 0.0066666667    4.5468691  0.010660927    87.533715    1003.3821 
   12500    163.15287   0.33421053    2.1694564   0.15113032 0.0066666667    3.8818399  0.010962885    86.628227    1002.2993 
   12600    164.22622   0.33202119    2.1830522   0.15113032 0.0066666667    3.7883277 0.0095752413    87.202749    1001.1626 
   12700    165.30581   0.33248242     2.197394   0.15113032 0.0066666667    3.8789567  0.010927207    87.676768    999.98317 
   12800    166.41795   0.33130631    2.2114383   0.15113032 0.0066666667    3.6452464  0.011544387    88.283369    998.75092 
   12900    167.51955   0.33252526    2.2251943   0.15113032 0.0066666667    3.7292632   0.01074383    87.237355    997.61192 
   13000    168.59132   0.33334469    2.2387471   0.15113032 0.0066666667    3.9007189  0.009853543    87.440264    996.45501 
   13100    169.63546    0.3330353     2.252576   0.15113032 0.0066666667    4.0447132  0.011149219    87.713292    995.27468 
   13200    170.71172   0.33244453    2.2661552   0.15113032 0.0066666667    3.9710053  0.010781699    87.379131    994.12363 
   13300    171.72731   0.33218533    2.2780439   0.15113032 0.0066666667    3.4992225 0.0097563923    87.701535    992.94526 
   13400    172.73212   0.33276175    2.2905369   0.15113032 0.0066666667    3.9160108  0.010423601     87.15493    991.81367 
   13500    173.76619   0.33322794    2.3034454   0.15113032 0.0066666667    3.9986763   0.01040145      86.1437    990.76816 
   13600    174.83196   0.33291453     2.316817   0.15113032 0.0066666667     4.399765  0.010475461     88.36193     989.5358 
   13700    175.93105   0.33286874    2.3310283   0.15113032 0.0066666667    3.5054029  0.010531819    88.198659    988.31811 
   13800    177.00568   0.33318456    2.3455093   0.15113032 0.0066666667     3.882478  0.010742539    88.548476    987.07366 
   13900    177.99975   0.33353766       2.3584   0.15113032 0.0066666667    4.2349978 0.0094423028    87.763727    985.89342 
   14000    179.04281   0.33441333    2.3721216   0.15113032 0.0066666667    3.7449045   0.01074616    86.133528    984.84622 
   14100    180.15611   0.33303187    2.3874466   0.15113032 0.0066666667    3.7572829   0.01156956    87.804643    983.66281 
   14200    181.26526   0.33280592     2.402889   0.15113032 0.0066666667    3.9270754   0.01089236    87.802015    982.48023 
   14300    182.26727   0.33457445    2.4166483   0.15113032 0.0066666667    3.9142451  0.010395351    88.030023    981.28058 
   14400    183.30407    0.3345582    2.4305367   0.15113032 0.0066666667    3.9678767  0.010530971    87.416482     980.1292 
   14500    184.37072   0.33438907    2.4456007   0.15113032 0.0066666667    4.0366463   0.01102934    87.476519     978.9733 
   14600    185.44637    0.3328806    2.4607721   0.15113032 0.0066666667    4.9931649 0.0095816661    86.874259    977.86393 
   14700    186.46593   0.33289508    2.4750243   0.15113032 0.0066666667    3.6194878  0.010330921    86.768495    976.76213 
   14800    187.47494   0.33374149    2.4880615   0.15113032 0.0066666667    3.7984366 0.0099361415    87.809257    975.58101 
   14900    188.46095   0.33437828    2.5008352   0.15113032 0.0066666667    3.8429414  0.010869434    86.797116    974.47631 
   15000    189.45444    0.3344859    2.5134709   0.15113032 0.0066666667    4.3144325   0.01004703    86.483794    973.39463 
   15100    190.51495   0.33365722    2.5268183   0.15113032 0.0066666667    4.2733355  0.010618689    87.326718     972.2492 
   15200    191.57628    0.3338067    2.5411462   0.15113032 0.0066666667    4.0471892  0.010488927     88.04902    971.05138 
   15300    192.58595   0.33261305    2.5552268   0.15113032 0.0066666667    4.4228799  0.010909682    86.061402    969.99957 
   15400    193.68083   0.33365512     2.570529   0.15113032 0.0066666667    3.9094886  0.010586414    86.374957    968.92316 
   15500    194.71372   0.33394529    2.5849834   0.15113032 0.0066666667    4.1840039    0.0105116    87.032731    967.79799 
   15600    195.79064   0.33440564    2.5998602   0.15113032 0.0066666667    3.7725304  0.010349318    87.012509    966.67397 
   15700    196.82212    0.3335967    2.6140263   0.15113032 0.0066666667    3.9912548   0.01108452    86.495547    965.58651 
   15800    197.93831   0.33271418    2.6291726   0.15113032 0.0066666667    4.0808045  0.011876012    88.367478    964.36766 
   15900    198.99781   0.33259372    2.6439466   0.15113032 0.0066666667    3.9543829  0.010886759    87.078048    963.23855 
   16000    200.08351   0.33353425    2.6583836   0.15113032 0.0066666667    4.0650785  0.011301885    87.035928    962.11211 
   16100    201.18686   0.33416492    2.6744018   0.15113032 0.0066666667    4.2098744 0.0095683029    86.411366    961.02866 
   16200     202.2341   0.33413244    2.6890742   0.15113032 0.0066666667    4.0915121  0.010454814    86.468461    959.94035 
   16300    203.31427   0.33382703    2.7034287   0.15113032 0.0066666667    4.3062295  0.010836276    87.189208    958.80212 
   16400    204.35567   0.33411246    2.7176431   0.15113032 0.0066666667    3.6914278 0.0097278801    87.328081    957.65448 
   16500    205.38582    0.3336418    2.7313197   0.15113032 0.0066666667    4.0386042  0.010430945    87.145061    956.51904 
   16600    206.41502   0.33433707     2.745327   0.15113032 0.0066666667    4.3176186  0.010449966     88.12709    955.31922 
   16700    207.45696   0.33450308    2.7593035   0.15113032 0.0066666667    5.1812324 0.0096110379    85.810307    954.27298 
   16800    208.44262   0.33428201    2.7728121   0.15113032 0.0066666667    4.1327596  0.011144013    88.474603    953.05154 
   16900    209.55831   0.33336388    2.7889135   0.15113032 0.0066666667    4.1510572  0.011444679     87.27869    951.90732 
   17000    210.66904   0.33371477    2.8032425   0.15113032 0.0066666667    4.0733206  0.010788942    85.800232    950.85948 
   17100    211.76156   0.33311649    2.8190908   0.15113032 0.0066666667    3.6865036  0.010676351    85.523443    949.82855 
   17200     212.8622   0.33332044    2.8335822   0.15113032 0.0066666667    4.0992455  0.010416543    86.805254     948.7129 
   17300    213.92306   0.33264577    2.8484875   0.15113032 0.0066666667    3.8654718 0.0098125788    87.533185    947.55103 
   17400    214.88684   0.33285708    2.8613706   0.15113032 0.0066666667    4.0808334   0.01117475    87.411654    946.39691 
   17500    215.97018   0.33400235    2.8756686   0.15113032 0.0066666667    4.3997238 0.0095700211    86.349528    945.30925 
   17600    216.99111   0.33436697    2.8891722   0.15113032 0.0066666667    4.4558021  0.010587716     87.26872    944.16369 
   17700    218.05339   0.33351346    2.9037286   0.15113032 0.0066666667    3.8044782   0.01107341    86.587435    943.06005 
   17800    219.14548   0.33450382    2.9180029   0.15113032 0.0066666667    3.7299947  0.010673428    87.345322    941.90955 
   17900    220.22459   0.33315066    2.9311785   0.15113032 0.0066666667    3.7942133  0.010983874    87.074107    940.77547 
   18000     221.2806   0.33296973    2.9441444   0.15113032 0.0066666667    3.7417762  0.011025017    85.176123    939.75781 
   18100    222.36114   0.33355866    2.9572429   0.15113032 0.0066666667    3.8310121  0.010488473    86.928706    938.63132 
   18200     223.3548   0.33391598    2.9711009   0.15113032 0.0066666667    4.6647983  0.010205423    87.246628    937.48573 
   18300     224.4321   0.33299374    2.9864488   0.15113032 0.0066666667    4.0554536   0.01074627    87.693907    936.31403 
   18400    225.53061   0.33450741    3.0025877   0.15113032 0.0066666667     3.842144 0.0093287673    87.333809    935.16352 
   18500    226.56791   0.33326487    3.0170308   0.15113032 0.0066666667    3.7023552  0.011396517    87.290042     934.0156 
   18600    227.64233   0.33261725    3.0319722   0.15113032 0.0066666667    3.8535865  0.010123821    86.106102    932.93665 
   18700    228.68984   0.33408871    3.0466792   0.15113032 0.0066666667    4.0601255 0.0099880377    87.696144    931.76526 
   18800     229.7387   0.33403409    3.0616634   0.15113032 0.0066666667    4.0183023   0.01151548    87.415189    930.61003 
   18900    230.80479   0.33292102    3.0761176   0.15113032 0.0066666667    3.9876537  0.010636694    86.997583    929.47849 
   19000    231.84631    0.3351838    3.0905833   0.15113032 0.0066666667    4.2380455  0.010358767    85.658614    928.42336 
   19100    232.86275   0.33454625    3.1056597   0.15113032 0.0066666667    4.0212069  0.011266841    87.457622    927.26533 
   19200    233.95289   0.33434334    3.1212736   0.15113032 0.0066666667    3.9477155  0.010897119    87.562222    926.10172 
   19300    234.97679   0.33446096    3.1365087   0.15113032 0.0066666667    4.1926064  0.010322281    86.296088    925.00839 
   19400    236.02828    0.3349581    3.1512627   0.15113032 0.0066666667    3.9350328 0.0099530219    85.307126    923.97019 
   19500    237.00377   0.33481106     3.165243   0.15113032 0.0066666667    5.1081753 0.0092789848    87.130253    922.82937 
   19600    238.01774   0.33438319      3.17952   0.15113032 0.0066666667    4.4865897  0.010678852    87.260423    921.68145 
   19700    239.05888   0.33472318    3.1949002   0.15113032 0.0066666667    4.9393844 0.0098831898    86.694174    920.56406 
   19800    240.06574   0.33446919    3.2096319   0.15113032 0.0066666667    5.1852076 0.0088032566    86.897513    919.43538 
   19900    241.07518   0.33413913    3.2242809   0.15113032 0.0066666667    4.2036464 0.0099638156    87.204943    918.29014 
   20000    242.12373   0.33466521    3.2389256   0.15113032 0.0066666667    4.0966485  0.011197942    87.600572    917.12417 
   20100     243.2119   0.33358956    3.2548264   0.15113032 0.0066666667    3.7237928  0.011063994    85.908292    916.04783 
   20200    244.25616   0.33395593    3.2700394   0.15113032 0.0066666667    4.1600606  0.010264929    87.428253    914.89068 
   20300    245.29514   0.33243047    3.2847074   0.15113032 0.0066666667    4.7279433  0.010328705    87.946647    913.70719 
   20400    246.34525   0.33463524    3.3001514   0.15113032 0.0066666667    4.2923021  0.010012276    88.562274    912.49332 
   20500    247.34174   0.33533433    3.3149005   0.15113032 0.0066666667    3.5792122  0.010399161    87.448742    911.33603 
   20600    248.37899   0.33501605    3.3307144   0.15113032 0.0066666667    3.9678578  0.010973777    86.827339    910.21042 
   20700    249.44344   0.33451932    3.3462994   0.15113032 0.0066666667    3.9594372  0.010048726    84.876882    909.18594 
   20800     250.4418   0.33398361    3.3614861   0.15113032 0.0066666667    3.6608188 0.0098092929    88.736431    907.96487 
   20900     251.4554   0.33337542    3.3758474   0.15113032 0.0066666667    4.2414171   0.01027904    87.571491    906.80143 
   21000    252.49391   0.33480097    3.3903249   0.15113032 0.0066666667    4.0725803  0.010766399    86.692686    905.68175 
   21100    253.57358   0.33398192    3.4065686   0.15113032 0.0066666667    4.0649777  0.010892627    87.664764    904.51391 
   21200    254.62362    0.3345847    3.4221639   0.15113032 0.0066666667    4.1299489  0.010909329    87.674697    903.34585 
   21300    255.70121   0.33589286    3.4378852   0.15113032 0.0066666667    4.0225413  0.010654028     87.62407    902.18049 
   21400    256.81897   0.33452589    3.4543101   0.15113032 0.0066666667    3.8384522  0.011550228    87.656703    901.01379 
   21500    257.95453    0.3345929    3.4700016   0.15113032 0.0066666667    4.2369019  0.010747341    86.858553     899.8856 
   21600    259.01334   0.33474332    3.4857036   0.15113032 0.0066666667    4.3119405  0.011231702    86.934688    898.75354 
   21700    260.10753   0.33415533    3.5009565   0.15113032 0.0066666667    4.1188722   0.01075223    86.963095    897.61996 
   21800    261.17758   0.33368744    3.5160689   0.15113032 0.0066666667    4.2816959   0.01055641    87.566061    896.45782 
   21900    262.25765   0.33481454    3.5317777   0.15113032 0.0066666667    3.8443673  0.010809521    87.574106     895.2955 
   22000    263.28186   0.33344601    3.5459342   0.15113032 0.0066666667    3.9645265   0.01045424    88.322911    894.09903 
   22100    264.36583   0.33528267    3.5608267   0.15113032 0.0066666667    4.7145159  0.010187214    87.115233    892.95848 
   22200    265.44737   0.33319497    3.5767043   0.15113032 0.0066666667    3.9693133  0.011277558     87.02159    891.82218 
   22300    266.54754   0.33290745    3.5922562   0.15113032 0.0066666667    3.7950442  0.011151048    87.320609    890.67206 
   22400    267.59796   0.33404234    3.6076934   0.15113032 0.0066666667    3.7998498  0.010313758    86.338792     889.5671 
   22500    268.66343   0.33476885    3.6234254   0.15113032 0.0066666667    3.6114046  0.010665854    88.019881    888.38548 
   22600    269.76671   0.33371628    3.6403323   0.15113032 0.0066666667    3.8531711  0.011025441    85.432111    887.32211 
   22700    270.87041   0.33453172    3.6555387   0.15113032 0.0066666667    3.9590417 0.0099132822    86.565776    886.20559 
   22800    271.90359   0.33502373    3.6700805   0.15113032 0.0066666667    3.9273986  0.011136858    85.252074    885.14902 
   22900     272.9854   0.33461546      3.68534   0.15113032 0.0066666667    3.9048105  0.010935752     83.92571    884.15383 
   23000       274.08   0.33384934    3.7013018   0.15113032 0.0066666667    3.8983183  0.010908144    84.084199    883.14943 
   23100    275.18097   0.33390557    3.7176817   0.15113032 0.0066666667    3.7824438  0.010280557    85.816663    882.06349 
   23200    276.28993   0.33275508    3.7338151   0.15113032 0.0066666667    3.7586514  0.010807763    87.475661    880.90372 
   23300    277.39394   0.33427513    3.7493501   0.15113032 0.0066666667    4.1430634  0.010315975    87.323663    879.75063 
   23400    278.45921   0.33292672    3.7642704   0.15113032 0.0066666667    3.9181613  0.010535035    87.649101     878.5837 
   23500    279.57857   0.33420357    3.7795703   0.15113032 0.0066666667    3.8611843  0.011206211    87.545134    877.42139 
   23600    280.65476   0.33329784    3.7954092   0.15113032 0.0066666667    3.9568952  0.011737598    88.021802    876.23924 
   23700    281.74678   0.33491024    3.8111429   0.15113032 0.0066666667    3.5247105  0.012060398     87.56906    875.07638 
   23800    282.84021   0.33416162    3.8256672   0.15113032 0.0066666667    4.0714425   0.01085792    87.223568    873.92818 
   23900    283.88955   0.33415162    3.8401114   0.15113032 0.0066666667    4.1072947  0.010818745    88.859511    872.71278 
   24000    284.88879   0.33560463    3.8531624   0.15113032 0.0066666667    3.9477999 0.0089805728    86.984737    871.57494 
   24100    285.91356   0.33410997    3.8671733   0.15113032 0.0066666667    4.0661056 0.0096050591    88.493064    870.37529 
   24200    286.93136   0.33369168    3.8818396   0.15113032 0.0066666667    4.1146341 0.0098851746    86.392428    869.26229 
   24300    287.93143   0.33395061    3.8961791   0.15113032 0.0066666667    4.0782313  0.010616941    88.422005    868.06615 
   24400    289.02754   0.33466538    3.9116236   0.15113032 0.0066666667    4.0286485  0.010647658    88.207544    866.87906 
   24500    290.08527   0.33493986    3.9270184   0.15113032 0.0066666667    3.9530033  0.010487529    88.344844    865.68698 
   24600    291.13053   0.33452079    3.9418834   0.15113032 0.0066666667    3.6891464  0.011483718    88.087335    864.50553 
   24700    292.21289   0.33490643    3.9580424   0.15113032 0.0066666667    3.6914003  0.010669495    87.946186    863.33001 
   24800    293.25856   0.33519264    3.9734652   0.15113032 0.0066666667    3.8553004  0.010340066     87.44989    862.17437 
   24900     294.2599   0.33426829     3.988141   0.15113032 0.0066666667    4.2381674   0.01063758     87.73107    861.00776 
   25000    295.24177   0.33529436    4.0016751   0.15113032 0.0066666667    3.8633202 0.0097884782    85.468478    859.93191 
   25100    296.22463   0.33570435     4.015056   0.15113032 0.0066666667    4.1910784 0.0097460038    87.410834    858.77771 
   25200    297.26143   0.33523282    4.0293328   0.15113032 0.0066666667    3.8375907  0.010896671    87.837411    857.60711 
   25300    298.33122   0.33473558    4.0438442   0.15113032 0.0066666667    4.0552975  0.010542484    87.728372    856.44094 
   25400    299.40377   0.33355905     4.059526   0.15113032 0.0066666667    3.7840369  0.010806636    87.764645    855.27358 
   25500    300.47952   0.33502668    4.0748932   0.15113032 0.0066666667    3.7741259  0.010375889    87.329991    854.12302 
   25600    301.52674   0.33440735    4.0911767   0.15113032 0.0066666667    3.7157544  0.010200056    87.871307      852.952 
   25700    302.61417   0.33353715    4.1057008   0.15113032 0.0066666667     4.148743  0.010299826    87.939216     851.7787 
   25800     303.6087   0.33485678    4.1183432   0.15113032 0.0066666667     3.915314  0.010353173    88.165622    850.59728 
   25900    304.60558   0.33301402    4.1322271   0.15113032 0.0066666667    4.2910761 0.0099341253    87.643955    849.43553 
   26000    305.59551   0.33364719    4.1456329   0.15113032 0.0066666667     4.787071   0.01003011    88.100139    848.25714 
   26100    306.57034   0.33493311    4.1588574   0.15113032 0.0066666667    4.4797935 0.0098299482    85.821949    847.16439 
   26200    307.65273   0.33372884    4.1732446   0.15113032 0.0066666667    3.8377034  0.011022068    87.198634    846.01926 
   26300    308.73842   0.33534657    4.1875335   0.15113032 0.0066666667    3.7163017  0.011370369    86.779876    844.88963 
   26400    309.83974   0.33271058    4.2040311   0.15113032 0.0066666667    3.6090231  0.010374739    87.521221    843.73262 
   26500    310.88465    0.3340417    4.2192278   0.15113032 0.0066666667    3.7975961  0.010145749     88.05305    842.55658 
   26600     311.9255   0.33336483    4.2346909   0.15113032 0.0066666667    4.2305964  0.011139511     88.25166    841.37378 
   26700    312.98993   0.33507433    4.2498131   0.15113032 0.0066666667    4.8285848 0.0097204782    87.503857    840.21795 
   26800    314.02515   0.33524026    4.2646557   0.15113032 0.0066666667    4.2852421  0.010734128     87.45547    839.06393 
   26900    315.06838   0.33400675    4.2792108   0.15113032 0.0066666667    4.3130049  0.010993077    88.840953    837.86154 
   27000    316.10974   0.33552169     4.293864   0.15113032 0.0066666667    4.2291315  0.010443811    87.547272    836.70469 
   27100    317.14046   0.33452667    4.3081615   0.15113032 0.0066666667     4.753415  0.009878603    86.548467     835.5834 
   27200    318.20493   0.33433246    4.3241467   0.15113032 0.0066666667     3.618208  0.010964999    87.233164     834.4376 
   27300    319.25606   0.33437217    4.3396116   0.15113032 0.0066666667    4.1986237  0.010993127    87.952751    833.26681 
   27400     320.3254   0.33526601    4.3545842   0.15113032 0.0066666667    4.7375681  0.010023602    87.867294    832.09919 
   27500    321.31948   0.33589657    4.3691916   0.15113032 0.0066666667     3.705878  0.009112254      88.0071    830.92703 
   27600    322.25668   0.33484479     4.383351   0.15113032 0.0066666667    3.8215946   0.01036632    87.842194    829.76072 
   27700    323.30529   0.33494784    4.3980116   0.15113032 0.0066666667    3.7229015 0.0098899181    83.668008    828.74286 
   27800    324.33925   0.33636078     4.412053   0.15113032 0.0066666667    3.9248403  0.010171108    79.703178    827.87813 
   27900    325.41235   0.33493379    4.4274424   0.15113032 0.0066666667    4.2816454  0.010544819    79.153134    827.03314 
   28000    326.47114   0.33349172    4.4423403   0.15113032 0.0066666667    3.8434395  0.011212928    78.540827    826.21048 
   28100    327.55502   0.33512792    4.4580724   0.15113032 0.0066666667     4.229635  0.011278859    79.630831    825.34003 
   28200    328.62494    0.3357905    4.4735184   0.15113032 0.0066666667     4.237639 0.0092084775    78.661567    824.50623 
   28300    329.62406   0.33661041    4.4883154   0.15113032 0.0066666667    3.9689123  0.010947379    79.168732    823.64872 
   28400    330.69705   0.33714993    4.5039798   0.15113032 0.0066666667    3.8573205   0.01091594    79.952284    822.75714 
   28500    331.74676   0.33373383    4.5195906   0.15113032 0.0066666667    4.2498908  0.010315654     79.66114    821.87451 
   28600    332.73229    0.3356942    4.5327778   0.15113032 0.0066666667    4.3417636 0.0098117616    80.004227    820.97583 
   28700    333.73492   0.33528358    4.5463233   0.15113032 0.0066666667     4.285325  0.010105737    79.444587    820.09658 
   28800    334.76005   0.33536707    4.5605322   0.15113032 0.0066666667     4.418913 0.0096181537    78.273422    819.26125 
   28900    335.79039   0.33559452    4.5748341   0.15113032 0.0066666667    3.9932359  0.011046153    75.446811    818.54062 
   29000    336.76355   0.33582482    4.5881278   0.15113032 0.0066666667    4.0087998  0.010528198    73.933819    817.88223 
   29100    337.82898   0.33555572    4.6015947   0.15113032 0.0066666667    4.1411996  0.010381959    72.943403    817.26381 
   29200    338.91496   0.33601753    4.6163186   0.15113032 0.0066666667    3.8927947  0.011324864    74.186939    816.58451 
   29300    339.98699   0.33473178      4.63022   0.15113032 0.0066666667    4.7176491 0.0094026307    73.660435    815.92391 
   29400    341.01921   0.33541591    4.6449404   0.15113032 0.0066666667    4.6119943  0.010407386     73.73772    815.25514 
   29500    342.01818   0.33407456    4.6584276   0.15113032 0.0066666667    4.4427747  0.010020714    74.010699    814.56976 
   29600    343.00311    0.3350417    4.6713352   0.15113032 0.0066666667    3.9135573 0.0093685746     73.84286    813.88718 
   29700    343.91291   0.33432386    4.6829011   0.15113032 0.0066666667    4.0942363   0.01006242    73.580485    813.21152 
   29800    344.92773   0.33447316    4.6958695   0.15113032 0.0066666667    4.0454796  0.011318571    73.237917    812.54624 
   29900    346.00197   0.33578623    4.7099045   0.15113032 0.0066666667    3.9321621  0.010709384    81.817457    811.54059 
   30000    347.08916   0.33531533      4.72442   0.15113032 0.0066666667     4.215252 0.0098716945    82.945642    810.49471 
   30100    348.10927   0.33428894    4.7374797   0.15113032 0.0066666667    4.1379904  0.010178508    82.880589    809.44997 
   30200    349.12882   0.33384914    4.7507514   0.15113032 0.0066666667    3.7930338  0.010651911    83.668642    808.37789 
   30300     350.1918   0.33452312    4.7646844   0.15113032 0.0066666667    4.1246453  0.010798755    83.422933    807.31309 
   30400    351.27319   0.33345423    4.7801079   0.15113032 0.0066666667    3.8383806     0.010163     82.64088    806.27339 
   30500    352.34609   0.33366498    4.7949183   0.15113032 0.0066666667    3.7902395  0.011356617    82.796674    805.22738 
   30600    353.42729   0.33468997    4.8103066   0.15113032 0.0066666667    4.2128802 0.0097134601    82.794207    804.18039 
   30700     354.4644   0.33520836    4.8244123   0.15113032 0.0066666667    4.1618143  0.010874514    82.587897    803.13917 
   30800    355.54742   0.33455797    4.8392805   0.15113032 0.0066666667    4.0112814  0.011588745    84.031993     802.0501 
   30900    356.65019   0.33549409    4.8538452   0.15113032 0.0066666667    3.8586093  0.011029598    83.492663    800.97756 
   31000    357.69357   0.33518565    4.8686766   0.15113032 0.0066666667    3.8848228  0.011368533    82.475047    799.93711 
   31100    358.70839   0.33469401    4.8824364   0.15113032 0.0066666667    4.3314878   0.01088451    80.691162    798.95493 
   31200    359.74306   0.33392874    4.8962517   0.15113032 0.0066666667    4.0317311  0.010234928    83.118267    797.89131 
   31300    360.75216   0.33350372     4.909961   0.15113032 0.0066666667    3.8569756  0.011020439    81.543593    796.87779 
   31400    361.81855   0.33356923    4.9245113   0.15113032 0.0066666667    3.8781132  0.010831442    82.472793    795.83273 
   31500    362.88179   0.33473107    4.9391615   0.15113032 0.0066666667    4.4000487  0.011267984    82.216896    794.79481 
   31600    363.95641   0.33408534    4.9539456   0.15113032 0.0066666667    3.5767782  0.011143481    82.213721    793.75587 
   31700    365.06213   0.33526867    4.9688672   0.15113032 0.0066666667    3.9030499 0.0098982057    82.668065     792.7014 
   31800    366.05014   0.33480695    4.9817147   0.15113032 0.0066666667    4.7524669  0.010105024    82.471853    791.65213 
   31900    367.06724    0.3332191    4.9958744   0.15113032 0.0066666667    4.6056482  0.010444286    83.062334    790.58343 
   32000    368.10135   0.33395244    5.0099809   0.15113032 0.0066666667    3.8373859  0.010173202    79.287365     789.6357 
   32100    369.14422   0.33448728    5.0247059   0.15113032 0.0066666667    3.6635492 0.0099232929     80.05008    788.66059 
   32200    370.13295   0.33374722    5.0382253   0.15113032 0.0066666667    3.9840179  0.009861263    81.185509    787.64699 
   32300    371.16388   0.33372055    5.0525064   0.15113032 0.0066666667    4.4419727  0.010474466    82.618742    786.58725 
   32400    372.22313   0.33440557    5.0662387   0.15113032 0.0066666667    4.4058515  0.010033547    84.175661    785.47988 
   32500    373.24418   0.33570427     5.079862   0.15113032 0.0066666667     4.578152  0.010486061    83.666873    784.38701 
   32600    374.24911   0.33335828    5.0943967   0.15113032 0.0066666667    3.8306893 0.0098746223    83.570884    783.29636 
   32700    375.27927   0.33343243    5.1087305   0.15113032 0.0066666667    3.7061362  0.010936177    83.488342    782.20749 
   32800    376.34869   0.33330209    5.1225428   0.15113032 0.0066666667    4.8633047 0.0099236175    82.570793    781.14522 
   32900    377.34921   0.33301136    5.1363241   0.15113032 0.0066666667    4.1405108 0.0096753405    80.734045    780.13825 
   33000    378.32744   0.33345118    5.1499639   0.15113032 0.0066666667    4.0995205 0.0096498236     81.58915    779.10351 
   33100    379.32968   0.33323173    5.1636613   0.15113032 0.0066666667     4.473204  0.010357881    82.213383    778.04882 
   33200    380.41174   0.33367206    5.1788259   0.15113032 0.0066666667     4.324069  0.010996334    82.267903    776.99152 
   33300    381.49111   0.33356987    5.1930567   0.15113032 0.0066666667    4.1653523  0.010689681    81.666578    775.95121 
   33400     382.5944   0.33380379    5.2083238   0.15113032 0.0066666667    4.0170244  0.010641313    80.910609     774.9326 
   33500    383.63847   0.33408045    5.2228532   0.15113032 0.0066666667    4.2416908  0.010906551    82.845851    773.85539 
   33600    384.66765   0.33507371    5.2373189   0.15113032 0.0066666667     4.582098 0.0094617348    82.744749    772.78031 
   33700    385.70762   0.33491629     5.252395   0.15113032 0.0066666667    4.8805834    0.0101211     82.25882    771.71849 
   33800    386.75967   0.33449903    5.2673149   0.15113032 0.0066666667     3.959717  0.011055584    82.666143    770.64403 
   33900    387.83574   0.33564415    5.2812405   0.15113032 0.0066666667    4.2246295 0.0094344665    82.218862     769.5816 
   34000    388.81727   0.33609823    5.2951008   0.15113032 0.0066666667    4.2347208  0.010397374    82.627758    768.50659 
   34100    389.88216   0.33415533    5.3095052   0.15113032 0.0066666667    4.2816753  0.010457571      80.8433     767.4824 
   34200    390.96863   0.33438505    5.3246448   0.15113032 0.0066666667    4.0981549  0.010907021    81.366296    766.44168 
   34300    392.00846   0.33399214    5.3394079   0.15113032 0.0066666667    4.2103447 0.0096812561     80.94846    765.41201 
   34400    393.00003   0.33580284    5.3526264   0.15113032 0.0066666667    4.1587934 0.0098551465    83.376069    764.31255 
   34500    394.01425   0.33404815    5.3666009   0.15113032 0.0066666667    4.0394742  0.010838277    82.434442    763.23852 
   34600    395.06961   0.33565011    5.3826836   0.15113032 0.0066666667    3.7654138  0.010859857    82.756177    762.15477 
   34700    396.16301     0.334504    5.3986108   0.15113032 0.0066666667    3.9907878  0.011046063    82.863642    761.06736 
   34800      397.205   0.33565782    5.4133453   0.15113032 0.0066666667    4.0474915 0.0087656513     82.04422    760.00184 
   34900    398.17346   0.33426971    5.4267054   0.15113032 0.0066666667    3.9549329   0.00970284    81.202437    758.95901 
   35000    399.20335   0.33481681    5.4407238   0.15113032 0.0066666667    4.3504554  0.010761104    82.851219    757.86959 
   35100    400.27612   0.33461063    5.4551439   0.15113032 0.0066666667    4.1931177  0.011575698    82.010163    756.80239 
   35200    401.39108   0.33583879    5.4696989   0.15113032 0.0066666667     4.331617  0.011075772    81.877878    755.73795 
   35300    402.40487   0.33378334    5.4838435   0.15113032 0.0066666667    3.9885524 0.0096145216    82.357395    754.65959 
   35400    403.48631   0.33284628    5.4994021   0.15113032 0.0066666667    5.0261748 0.0093811316    82.061524    753.58845 
   35500    404.52108   0.33405437    5.5141363   0.15113032 0.0066666667    4.0038677  0.011323963    82.902246    752.49402 
   35600    405.62219   0.33357463    5.5309254   0.15113032 0.0066666667    3.9990814  0.011462962    82.462659     751.4106 
   35700    406.64872   0.33446134    5.5463692   0.15113032 0.0066666667    4.3264322  0.011191948    80.856298    750.36985 
   35800     407.5744   0.33514394    5.5593493   0.15113032 0.0066666667    4.3665397 0.0091922663    82.648599    749.27991 
   35900    408.50528   0.33542892    5.5729495   0.15113032 0.0066666667    4.1550838  0.010543129    80.800051    748.23872 
   36000    409.59527   0.33551612     5.588329   0.15113032 0.0066666667    3.9520909  0.010941996    81.746831    747.17096 
   36100    410.66345   0.33420873    5.6037963   0.15113032 0.0066666667    4.0878906  0.010771337    80.582581    746.13362 
   36200    411.73701   0.33397298     5.619085   0.15113032 0.0066666667    3.9416147  0.011237526    81.596419    745.06798 
   36300    412.79901   0.33366409    5.6344237   0.15113032 0.0066666667    3.7718476  0.010616488    83.103824    743.96245 
   36400    413.83991   0.33444453    5.6493453   0.15113032 0.0066666667    4.1329418  0.010870416    81.930673    742.88649 
   36500     414.8559   0.33635679    5.6632707   0.15113032 0.0066666667    4.0876319  0.009956541    83.419183    741.77185 
   36600    415.92647   0.33552965    5.6786985   0.15113032 0.0066666667     4.023574  0.010444916    84.402726    740.63254 
   36700    417.01967   0.33346456    5.6954781   0.15113032 0.0066666667    4.3338359 0.0097830012    83.903314    739.50516 
   36800    418.02526   0.33416648    5.7099937   0.15113032 0.0066666667    4.2607102  0.010294528    84.252037    738.36895 
   36900    419.08308   0.33530204    5.7238016   0.15113032 0.0066666667     3.521128  0.010821265    83.776149      737.244 
   37000    420.11567   0.33446829    5.7380483   0.15113032 0.0066666667     4.444916 0.0098034249    82.212303    736.15734 
   37100    421.15486   0.33447979    5.7523088   0.15113032 0.0066666667    4.5106876  0.010157013    82.230629    735.06951 
   37200    422.19732   0.33333442    5.7672194   0.15113032 0.0066666667    3.8383742  0.010670181    83.484636    733.95017 
   37300    423.27066    0.3344537    5.7821879   0.15113032 0.0066666667    3.8874414  0.010708247    81.777385    732.87243 
   37400    424.37818   0.33473095    5.7982877   0.15113032 0.0066666667    4.1990818  0.010116376    80.064062    731.83772 
   37500    425.43594   0.33493529    5.8135664   0.15113032 0.0066666667    4.1779033  0.011067295    78.894281    730.83273 
   37600    426.50464   0.33447116    5.8293549   0.15113032 0.0066666667    4.0104643  0.011515568    79.386621     729.8133 
   37700    427.58907   0.33362822    5.8460609   0.15113032 0.0066666667    4.3852015  0.010560593    83.055229    728.70065 
   37800    428.63085    0.3329333    5.8604858   0.15113032 0.0066666667    4.5526584  0.010518929    82.511391    727.60058 
   37900    429.60267   0.33420726    5.8745293   0.15113032 0.0066666667    4.8765474 0.0093960837     83.30147    726.48108 
   38000    430.61628    0.3348086    5.8894349   0.15113032 0.0066666667     3.782006  0.009966018    81.831791    725.39633 
   38100    431.60845   0.33484881    5.9035747   0.15113032 0.0066666667    3.9183388  0.010079961     83.91943    724.26146 
   38200    432.60763   0.33450822    5.9171518   0.15113032 0.0066666667    4.0627235  0.010223019    82.166097    723.16744 
   38300    433.62762   0.33310043    5.9319043   0.15113032 0.0066666667    3.8709432 0.0097955894    84.445209    722.01986 
   38400    434.59726    0.3337926    5.9455424   0.15113032 0.0066666667    4.2780129 0.0095982176    82.911439    720.90724 
   38500    435.61302   0.33362613    5.9607811   0.15113032 0.0066666667    4.3127777  0.010788522    82.553014    719.80249 
   38600    436.71793   0.33390936    5.9772158   0.15113032 0.0066666667    4.4589897  0.010770455    82.570712    718.69678 
   38700    437.74773   0.33393646    5.9922005   0.15113032 0.0066666667    4.0734011  0.010828147    82.047318    717.60276 
   38800    438.85087   0.33389001    6.0081709   0.15113032 0.0066666667    3.7170627  0.011418624    82.877167    716.48884 
   38900    439.97082   0.33389071    6.0237436   0.15113032 0.0066666667    4.2837325 0.0096246857    83.585756    715.35839 
   39000    441.01222   0.33496419    6.0378414   0.15113032 0.0066666667    4.0751185 0.0098453691    83.019177    714.24036 
   39100    441.92388    0.3338193    6.0500956   0.15113032 0.0066666667    4.0823855 0.0089446735    81.197501    713.16399 
   39200    442.80294   0.33461693    6.0620259   0.15113032 0.0066666667    4.2531039 0.0087834917    82.573784    712.05498 
   39300    443.69016   0.33395688    6.0743162   0.15113032 0.0066666667    4.1455787 0.0095629604    84.108969    710.91132 
   39400    444.63093   0.33326865    6.0863766   0.15113032 0.0066666667    5.4169944 0.0090497589    83.430665    709.78229 
   39500    445.64524   0.33413227     6.100741   0.15113032 0.0066666667    3.8974904  0.010911476    83.507657    708.65122 
   39600    446.73168   0.33491976    6.1170409   0.15113032 0.0066666667     4.001428  0.010984587     83.77461    707.51399 
   39700    447.79849   0.33465621    6.1321491   0.15113032 0.0066666667    3.9019462  0.010460144    82.658632    706.40096 
   39800    448.83285   0.33450132    6.1461705   0.15113032 0.0066666667    4.2272562   0.01094109    82.117579    705.29949 
   39900    449.89232   0.33461446    6.1596756   0.15113032 0.0066666667    3.9269168  0.010993432    82.363443    704.19197 
   40000    450.97053   0.33436994    6.1741348   0.15113032 0.0066666667    3.9076486 0.0091356124    80.979139    703.11505 
   40100    451.99737   0.33357266    6.1879717   0.15113032 0.0066666667    4.0409079  0.010927965    84.729888    701.95568 
   40200    453.06544    0.3335771    6.2031876   0.15113032 0.0066666667    3.8248973  0.010286573    83.426152    700.82365 
   40300    454.12343   0.33411719     6.217252   0.15113032 0.0066666667    3.6817953  0.011464097    83.076072    699.69877 
   40400    455.26075   0.33426652    6.2322761   0.15113032 0.0066666667    4.4234635  0.010135054    84.012283    698.55371 
   40500    456.28544   0.33412913    6.2463185   0.15113032 0.0066666667    4.4992682  0.010461523     84.12977    697.40598 
   40600    457.37659   0.33514033    6.2605164   0.15113032 0.0066666667    4.0766293  0.011844046    81.937588    696.30458 
   40700    458.48116   0.33394897    6.2756028   0.15113032 0.0066666667    3.7875563  0.011151223    78.455926     695.2815 
   40800    459.47292   0.33467002    6.2888897   0.15113032 0.0066666667    3.9384184 0.0097403741    81.098325    694.19694 
   40900    460.40711   0.33505466    6.3013941   0.15113032 0.0066666667    3.7097572 0.0096019737     81.59915    693.10071 
   41000    461.42984   0.33529859    6.3153179   0.15113032 0.0066666667    4.2260448  0.010393705     82.53188    691.98392 
   41100    462.45297   0.33538977    6.3294015   0.15113032 0.0066666667    3.9959026  0.010176224    81.422828    690.89032 
   41200    463.52742   0.33480078    6.3441947   0.15113032 0.0066666667    4.0255558  0.010533501    82.970468    689.76337 
   41300    464.56676   0.33467799     6.357943   0.15113032 0.0066666667    4.3622686   0.01047738    82.089807    688.65442 
   41400    465.63686   0.33443672     6.371664   0.15113032 0.0066666667    3.9482934  0.010962925    82.838521    687.52936 
   41500    466.73739   0.33440611    6.3877152   0.15113032 0.0066666667    3.9759146  0.011331198    82.234192     686.4164 
   41600    467.84598   0.33423076    6.4036146   0.15113032 0.0066666667    4.0423301   0.01142107    83.356268    685.27997 
   41700    468.93993   0.33478185    6.4188455   0.15113032 0.0066666667    4.2626761  0.010846587    81.805409    684.17504 
   41800    469.92153   0.33542473    6.4324056   0.15113032 0.0066666667     4.769532 0.0096375524    81.135113     683.0836 
   41900    470.89109   0.33468387    6.4459171   0.15113032 0.0066666667     4.167181 0.0093579315    81.091426    681.99241 
   42000    471.80806   0.33499928    6.4586881   0.15113032 0.0066666667    4.1339493 0.0088542386    81.387484    680.89436 
   42100    472.78002   0.33357822    6.4727147   0.15113032 0.0066666667    4.0246624  0.010230321    81.354002    679.79637 
   42200    473.85556   0.33459151    6.4871772   0.15113032 0.0066666667    3.6920743 0.0096769896    81.559275    678.69353 
   42300    474.89492    0.3335928    6.5020328   0.15113032 0.0066666667    3.7693182 0.0091880556    82.246174    677.57613 
   42400    475.93174   0.33503083    6.5161853   0.15113032 0.0066666667    3.9771318  0.010926912    81.514608     676.4731 
   42500    477.01908   0.33350864     6.531566   0.15113032 0.0066666667    3.8039191  0.011650798    81.903107    675.36161 
   42600    478.09261   0.33397989    6.5459836   0.15113032 0.0066666667    4.1246577  0.010342881    81.734198      674.253 
   42700    479.19469   0.33483119    6.5608885   0.15113032 0.0066666667    4.2810898    0.0108624    82.191215    673.13473 
   42800    480.26003   0.33613553     6.574401   0.15113032 0.0066666667     4.120219  0.011426162    82.259917    672.01464 
   42900    481.29947   0.33457184    6.5884524   0.15113032 0.0066666667     4.269684 0.0098183186    81.593879    670.90731 
   43000    482.28471   0.33357152    6.6012361   0.15113032 0.0066666667    4.3869652  0.011161057    80.209256    669.82748 
   43100    483.34388   0.33412964    6.6156923   0.15113032 0.0066666667    4.2703517  0.011051526    82.097697    668.70902 
   43200    484.45229    0.3360536    6.6295885   0.15113032 0.0066666667    4.0196608  0.011010216    81.623525    667.59939 
   43300    485.54386   0.33491956     6.644221   0.15113032 0.0066666667    4.9987477 0.0099293557    80.754968    666.50649 
   43400    486.57946   0.33392346    6.6584317   0.15113032 0.0066666667    3.9508529  0.011188321    80.465013    665.41873 
   43500    487.65051   0.33271974    6.6717878   0.15113032 0.0066666667    4.4339013  0.010490538    80.778452      664.324 
   43600    488.68919    0.3345887    6.6848198   0.15113032 0.0066666667    3.5870762  0.010145245    83.474683    663.17689 
   43700    489.73269   0.33408054    6.6971634   0.15113032 0.0066666667    4.0095499   0.01103287    82.348857    662.05065 
   43800    490.81157   0.33565283    6.7105459   0.15113032 0.0066666667    4.3031207  0.010917242     82.45042    660.92208 
   43900    491.85176   0.33382943    6.7237565   0.15113032 0.0066666667    3.9242899  0.010044366    82.139772    659.79899 
   44000    492.90381   0.33599184    6.7372124   0.15113032 0.0066666667    3.5593156  0.011408437    81.566936    658.68636 
   44100    493.99848   0.33497367    6.7521215   0.15113032 0.0066666667    4.3702032  0.010020647    81.620586    657.57219 
   44200    495.04322   0.33515756    6.7661718   0.15113032 0.0066666667    4.2264247 0.0097159939    82.406812    656.44276 
   44300    496.09344   0.33540889    6.7799125   0.15113032 0.0066666667    4.1964855  0.010770652    81.291027    655.33389 
   44400    497.18478   0.33516231    6.7944231   0.15113032 0.0066666667    4.3223446  0.011282613    80.986223    654.23027 
   44500    498.26135   0.33516937    6.8085483   0.15113032 0.0066666667    3.9009134  0.010331774    82.094386    653.10528 
   44600    499.28338   0.33364182    6.8225317   0.15113032 0.0066666667    4.0575536   0.01102013    82.162524    651.97862 
   44700    500.36874   0.33331317    6.8365374   0.15113032 0.0066666667    3.9548124  0.011168981    82.469534    650.84594 
   44800    501.38641   0.33412117    6.8501406   0.15113032 0.0066666667    3.9292563  0.010234902     81.65192    649.72787 
   44900    502.42783    0.3343149    6.8641478   0.15113032 0.0066666667    4.0815282  0.010873829    81.508494    648.61197 
   45000     503.5129   0.33526203    6.8789907   0.15113032 0.0066666667    4.6960428  0.010496717    81.925232    647.48794 
   45100    504.55001   0.33324757    6.8926434   0.15113032 0.0066666667    4.0116694  0.010182444    81.540074    646.37051 
   45200    505.59326   0.33382817     6.906652   0.15113032 0.0066666667     4.339853  0.010191111    83.068553    645.22524 
   45300    506.63063   0.33480543    6.9210019   0.15113032 0.0066666667    5.1908434 0.0089977502    81.107672    644.11485 
   45400    507.69255   0.33398496    6.9354168   0.15113032 0.0066666667    3.9389026  0.010905862    81.936723    642.98892 
   45500    508.77468   0.33443211    6.9498249   0.15113032 0.0066666667    4.4536708  0.010651847    80.894551     641.8814 
   45600    509.85374   0.33346233    6.9651632   0.15113032 0.0066666667     4.580207  0.010828889    81.436012    640.76352 
   45700    510.96475   0.33470707    6.9803242   0.15113032 0.0066666667    3.7832122  0.010876901    80.808473    639.65648 
   45800    512.07951   0.33372237    6.9973423   0.15113032 0.0066666667    3.7928612  0.011330806    82.634726    638.51651 
   45900    513.17214   0.33361978    7.0133903   0.15113032 0.0066666667    4.0452503  0.010625032    80.572395    637.41275 
   46000    514.28163   0.33400814    7.0290855   0.15113032 0.0066666667    4.3115426  0.011014029    80.821335     636.3039 
   46100    515.37896   0.33614627    7.0453021   0.15113032 0.0066666667    4.4543994  0.011040112    81.877622    635.17582 
   46200    516.45758   0.33404734    7.0613685   0.15113032 0.0066666667    3.6978137 0.0093170807    80.186607    634.07734 
   46300    517.51562   0.33559455    7.0775492   0.15113032 0.0066666667    4.6207246  0.010188974    81.675452    632.95185 
   46400    518.55336   0.33412828    7.0935642   0.15113032 0.0066666667    4.2048111  0.010047816    81.344393    631.83169 
   46500    519.48025   0.33284527    7.1083881   0.15113032 0.0066666667    3.9592178 0.0088582214    80.733455    630.72176 
   46600    520.45213    0.3340024    7.1240159   0.15113032 0.0066666667    4.0701675  0.010015652    81.585706    629.59646 
   46700    521.47285   0.33414778    7.1403833   0.15113032 0.0066666667    4.0340091   0.01043983    81.095565    628.47918 
   46800    522.51994   0.33411943    7.1563084   0.15113032 0.0066666667    4.5244604  0.010693237    81.123657    627.36091 
   46900    523.56671   0.33357573    7.1731436   0.15113032 0.0066666667    4.7228947  0.010521402    81.532086    626.23517 
   47000    524.62656   0.33487894    7.1885691   0.15113032 0.0066666667    4.0912985  0.010847159    81.565937    625.10843 
   47100    525.72223   0.33373735    7.2047232   0.15113032 0.0066666667    4.0504641  0.011594864    80.928468    623.99211 
   47200    526.83094   0.33397769    7.2214019   0.15113032 0.0066666667    4.2190504  0.011462539    81.683596    622.86251 
   47300    527.94891   0.33352781    7.2379956   0.15113032 0.0066666667    3.7474501  0.010980129     81.10866    621.74217 
   47400    529.04047   0.33315727    7.2537837   0.15113032 0.0066666667    4.3734077  0.011146002    81.794975    620.60988 
   47500    530.11857   0.33379287    7.2686882   0.15113032 0.0066666667    4.5328374 0.0099522579    80.728047    619.49507 
   47600    531.19157   0.33546863    7.2842475   0.15113032 0.0066666667    4.0479226  0.010649276    81.750368    618.36269 
   47700    532.26756    0.3355131    7.2992317   0.15113032 0.0066666667    3.7942692  0.011128197    81.590626    617.23255 
   47800    533.29538   0.33466437    7.3136826   0.15113032 0.0066666667     4.155632  0.010223539    82.045552    616.09459 
   47900     534.2749    0.3354162    7.3276883   0.15113032 0.0066666667    5.2963776 0.0087575096    81.191182    614.97024 
   48000      535.159   0.33420887    7.3393256   0.15113032 0.0066666667    4.9431451 0.0088019082    80.804877    613.85183 
   48100    536.19092   0.33502985    7.3528466   0.15113032 0.0066666667    3.7835585  0.010725988    78.768447    612.76744 
   48200    537.22264   0.33425616    7.3666235   0.15113032 0.0066666667    3.7960425  0.010684462    80.616686      611.651 
   48300    538.28229   0.33571352    7.3809732   0.15113032 0.0066666667    4.0121594  0.010663259    81.930945    610.51275 
   48400    539.34019    0.3340682    7.3963711   0.15113032 0.0066666667    4.0053044  0.011361115    82.017973    609.37278 
   48500    540.42329   0.33511613     7.412235   0.15113032 0.0066666667    3.8992335  0.011060177    82.177769    608.22997 
   48600    541.47771   0.33379176    7.4274195   0.15113032 0.0066666667    3.7919868   0.01099407    80.293677    607.11705 
   48700     542.5336   0.33435894    7.4429104   0.15113032 0.0066666667    4.7022821 0.0098620096    80.914277    605.99352 
   48800    543.53902   0.33480225    7.4583942   0.15113032 0.0066666667    4.2540586  0.010520746    80.986144    604.86838 
   48900    544.60537   0.33509094    7.4741279   0.15113032 0.0066666667    4.1370701  0.010175796    82.415912    603.72041 
   49000    545.59194   0.33480609    7.4890126   0.15113032 0.0066666667    4.1474697    0.0100204    81.613805    602.58459 
   49100    546.63049   0.33404142    7.5055776   0.15113032 0.0066666667    3.8424859  0.011102238    81.374773    601.45213 
   49200    547.67684   0.33542953    7.5217814   0.15113032 0.0066666667    4.5334022  0.010231708    83.022957    600.29409 
   49300    548.70851   0.33513137    7.5380534   0.15113032 0.0066666667    4.0921205  0.010258281    82.112596    599.14959 
   49400    549.71652   0.33420009    7.5528912   0.15113032 0.0066666667    3.8987341  0.009922423    81.146368    598.01965 
   49500    550.73013   0.33564959    7.5681327   0.15113032 0.0066666667    4.5214184  0.010212098    81.084732    596.89026 
   49600    551.73254   0.33474817    7.5834777   0.15113032 0.0066666667    4.3122639  0.010164845    79.878968    595.77936 
   49700    552.75385   0.33515522    7.5998664   0.15113032 0.0066666667    4.2507376  0.010488077    82.380591    594.62941 
   49800    553.76354   0.33551151    7.6150732   0.15113032 0.0066666667    3.8300031 0.0090667114    81.121163    593.49821 
   49900    554.71149   0.33509942    7.6295524   0.15113032 0.0066666667    4.3357164 0.0097306683    81.909137     592.3547 
   50000    555.69471   0.33419742    7.6442364   0.15113032 0.0066666667    4.0624952  0.010275834    80.888607    591.22628 
   50100    556.72197   0.33444742    7.6601479   0.15113032 0.0066666667    4.3420797  0.010944777    81.133732     590.0937 
   50200    557.81454   0.33459775      7.67598   0.15113032 0.0066666667    4.3169718  0.010496658    81.254774    588.95891 
   50300    558.87498   0.33350602    7.6914627   0.15113032 0.0066666667    4.5132926  0.010457482    82.186077    587.80996 
   50400    559.87845   0.33374671    7.7056053   0.15113032 0.0066666667    3.9750405  0.010155483    81.011547     586.6781 
   50500     560.9564   0.33469468    7.7208954   0.15113032 0.0066666667    4.0261745  0.010253896    80.386425    585.55524 
   50600    562.01261   0.33507824    7.7350722   0.15113032 0.0066666667    4.1003922  0.010450578    78.261168    584.46489 
   50700    563.02816   0.33386126    7.7498418   0.15113032 0.0066666667    4.2170305  0.009497003    78.675113    583.36725 
   50800     564.0479   0.33414335    7.7657126   0.15113032 0.0066666667    3.8721632  0.010100602    80.687918    582.23823 
   50900    565.05704   0.33412808      7.77951   0.15113032 0.0066666667    4.4508451 0.0099923772    81.126544    581.10231 
   51000    566.09865   0.33418564    7.7932173   0.15113032 0.0066666667    4.1775995  0.010795971    81.546717    579.95991 
   51100    567.13782   0.33302031    7.8069364   0.15113032 0.0066666667    4.4194144  0.010326794    80.570058     578.8314 
   51200    568.19735   0.33413831    7.8214278   0.15113032 0.0066666667    4.0829311  0.010587751    81.307415    577.69173 
   51300     569.2882   0.33571473      7.83625   0.15113032 0.0066666667    4.1326436   0.01082935    80.479017    576.56372 
   51400    570.33435   0.33407704     7.850302   0.15113032 0.0066666667    3.5928959  0.010011321    78.493116    575.46499 
   51500    571.42202   0.33449388    7.8654783   0.15113032 0.0066666667    4.5593077 0.0099783273    79.038447     574.3573 
   51600    572.46039   0.33539109    7.8798799   0.15113032 0.0066666667    4.2420061  0.010397114    78.603324    573.25557 
   51700    573.50475   0.33510169    7.8944118   0.15113032 0.0066666667    4.3745153  0.010690914     77.28225     572.1735 
   51800    574.56288   0.33366961    7.9090972   0.15113032 0.0066666667    4.2078661  0.011211369    78.825439    571.06704 
   51900    575.65812   0.33379722    7.9248961   0.15113032 0.0066666667    3.8475786  0.011148751    78.244203    569.96869 
   52000    576.64621   0.33347212    7.9395064   0.15113032 0.0066666667     3.791488  0.010881051    80.054251    568.84298 
   52100    577.72463   0.33456476    7.9546432   0.15113032 0.0066666667    3.6842669  0.011109564    81.036293    567.70287 
   52200    578.78591   0.33369971    7.9702374   0.15113032 0.0066666667     4.165152  0.010871794    81.257608    566.55932 
   52300    579.87324   0.33281199    7.9859464   0.15113032 0.0066666667    4.3401674  0.010846695    80.961226    565.41955 
   52400    580.80284   0.33436411     7.998485   0.15113032 0.0066666667    4.0549027 0.0099815694    80.659475    564.28362 
   52500    581.83656   0.33332735    8.0136384   0.15113032 0.0066666667    4.4252882  0.010278206     81.37842    563.13737 
   52600    582.87467   0.33452073    8.0285769   0.15113032 0.0066666667    4.4800125 0.0099051289    82.145515    561.98048 
   52700    583.96141   0.33505939    8.0442341   0.15113032 0.0066666667    4.1729383  0.010897855     80.98064    560.83907 
   52800    585.02897   0.33538721    8.0585176   0.15113032 0.0066666667    4.2063654  0.010961863    82.875513    559.67207 
[...]
   85300    925.84796   0.33393717    12.896472   0.15113032 0.0066666667    4.2984212  0.010614421    82.614787    176.90154 
   85400    926.93563   0.33417168     12.91156   0.15113032 0.0066666667    4.1846838  0.010781485    81.487242    175.70219 
   85500    928.03753   0.33395323    12.927368   0.15113032 0.0066666667    4.0417703  0.010762028     80.29277    174.50587 
   85600    929.08562   0.33411135    12.942758   0.15113032 0.0066666667    3.9557281  0.010814534    78.624954    173.31389 
   85700    930.15025   0.33517854    12.957915   0.15113032 0.0066666667    3.9142463  0.011172119    79.023645    172.12064 
   85800    931.22194   0.33369761    12.972622   0.15113032 0.0066666667    3.9967281  0.010288854     79.81107    170.92516 
   85900    932.25904   0.33484797    12.987184   0.15113032 0.0066666667     3.769344  0.010937095    81.153951    169.72615 
   86000    933.34532   0.33267959    13.002577   0.15113032 0.0066666667    3.8667852  0.010523679     80.82688    168.52787 
   86100    934.43678   0.33369656    13.017877   0.15113032 0.0066666667    3.8831484  0.010496504    79.922515    167.33176 
   86200    935.47998   0.33437245    13.032255   0.15113032 0.0066666667    3.9755242 0.0099454333    82.525141     166.1292 
   86300    936.46114   0.33506688    13.045658   0.15113032 0.0066666667    3.7903781  0.010423029    82.245158    164.92728 
   86400    937.48323   0.33378616     13.06041   0.15113032 0.0066666667    3.9359795 0.0090454353    83.084695    163.72339 
   86500    938.48851   0.33482304    13.074222   0.15113032 0.0066666667    4.2188053  0.010394268    81.986438    162.52201 
   86600    939.52076   0.33545065      13.0884   0.15113032 0.0066666667    4.1102546 0.0099848319    80.507069    161.32407 
   86700    940.54633   0.33484978    13.102975   0.15113032 0.0066666667      3.84936 0.0098012275    81.369216      160.124 
   86800    941.59519   0.33513455    13.118032   0.15113032 0.0066666667    3.9419563  0.010054861      80.4377    158.92603 
   86900    942.63491   0.33401219    13.132989   0.15113032 0.0066666667    3.7473974  0.010064145    82.443225     157.7234 
   87000    943.63111   0.33458551    13.147202   0.15113032 0.0066666667    3.8241316  0.010249284    80.637424     156.5248 
   87100    944.65631   0.33362826    13.162917   0.15113032 0.0066666667    4.3342578  0.010783782    81.503504    155.32416 
   87200    945.73754   0.33417347    13.178305   0.15113032 0.0066666667    4.1248387  0.011468327    81.736412    154.12294 
   87300    946.86321   0.33289396    13.193885   0.15113032 0.0066666667    3.7185859  0.011123623    82.132084    152.92081 
   87400    947.94743   0.33388248    13.208431   0.15113032 0.0066666667     4.437528  0.010594524    81.149209    151.72077 
   87500    949.02446   0.33536786    13.223034   0.15113032 0.0066666667    4.2653854  0.011324971    81.228164    150.52049 
   87600    950.09165   0.33495883    13.237507   0.15113032 0.0066666667     4.379499   0.01006894    80.078354    149.32265 
   87700    951.14504   0.33339303    13.251683   0.15113032 0.0066666667    4.0619753  0.011443614     80.90936    148.12288 
   87800    952.26677   0.33330314     13.26706   0.15113032 0.0066666667    3.8130937   0.01113316    81.174432    146.92247 
   87900     953.3488   0.33295443     13.28169   0.15113032 0.0066666667    3.7287683  0.011076731    81.102794    145.72215 
   88000    954.42807   0.33335455    13.295396   0.15113032 0.0066666667    3.5512063  0.011120734     81.68961    144.52053 
   88100    955.50404   0.33235805    13.309425   0.15113032 0.0066666667     4.309577  0.010796782    77.520944    143.32776 
   88200    956.55048   0.33331099    13.322841   0.15113032 0.0066666667    4.2837315  0.011269038    82.660603    142.12404 
   88300    957.66082    0.3340156    13.337579   0.15113032 0.0066666667    4.1165995  0.011375946     81.01607    140.92356 
   88400    958.79345   0.33392182    13.353131   0.15113032 0.0066666667    4.2619883  0.011244526    80.547855    139.72394 
   88500    959.92775   0.33490087    13.368099   0.15113032 0.0066666667    3.9720327  0.011438091    80.850936    138.52363 
   88600    960.99154   0.33445763    13.383013   0.15113032 0.0066666667    3.7901768  0.010319794    81.415795    137.32212 
   88700    962.06579   0.33387539    13.397445   0.15113032 0.0066666667    3.9791313   0.01035843    80.807165    136.12174 
   88800    963.13903   0.33274095     13.41257   0.15113032 0.0066666667    4.0257116   0.01161893    81.734342     134.9195 
   88900    964.19378   0.33379251    13.426711   0.15113032 0.0066666667    3.8546353  0.011560813    82.011783     133.7167 
   89000    965.26835   0.33446174    13.441382   0.15113032 0.0066666667    4.2152026   0.01009771    79.948062    132.51775 
   89100    966.33218   0.33439225    13.457291   0.15113032 0.0066666667    4.4128166  0.009299562    81.761141    131.31529 
   89200    967.29707   0.33512036    13.469958   0.15113032 0.0066666667    3.7117242  0.011013172    82.298089    130.11182 
   89300    968.40415    0.3334936    13.486038   0.15113032 0.0066666667    3.8168286  0.011236532    82.392146    128.90815 
   89400    969.48018    0.3345453    13.500982   0.15113032 0.0066666667    3.8383502  0.011234118    82.519686    127.70424 
   89500       970.54   0.33433915    13.515492   0.15113032 0.0066666667    3.5403232  0.010536442    82.530175     126.5003 
   89600    971.61971   0.33418456    13.529454   0.15113032 0.0066666667    3.8412766  0.011488976    82.085421     125.2971 
   89700    972.67991   0.33376693    13.544287   0.15113032 0.0066666667    4.1658362  0.010406793     82.60047    124.09299 
   89800    973.71812   0.33569245    13.558841   0.15113032 0.0066666667    4.4682221  0.010632325    83.257155    122.88779 
   89900    974.76979   0.33484376    13.573083   0.15113032 0.0066666667    4.5859594  0.010398009    82.599299    121.68366 
   90000    975.83889   0.33561502    13.588138   0.15113032 0.0066666667    3.7660647  0.011867436    81.458961    120.48141 
   90100    976.91714   0.33502126    13.603678   0.15113032 0.0066666667    4.7064221  0.010231499    81.875001    119.27842 
   90200    977.93306   0.33289567    13.618846   0.15113032 0.0066666667      4.64205  0.010137931     82.43684    118.07448 
   90300    978.89573   0.33353829    13.632529   0.15113032 0.0066666667    3.6475518 0.0098331993    82.520092    116.87039 
   90400     979.9368   0.33387832    13.647547   0.15113032 0.0066666667    4.6191211  0.010726444     80.71318    115.66916 
   90500    981.02898   0.33494273    13.663614   0.15113032 0.0066666667    4.1756769   0.01096579    81.682864     114.4663 
   90600    982.12852    0.3334803    13.679384   0.15113032 0.0066666667    4.2722357  0.010385835     81.09268    113.26433 
   90700    983.18488   0.33395687    13.695256   0.15113032 0.0066666667    3.9825258 0.0097185568     81.67892    112.06137 
   90800    984.14755   0.33510902     13.70918   0.15113032 0.0066666667    4.0354454  0.009704189    81.387358    110.85882 
   90900    985.14194   0.33494153    13.722915   0.15113032 0.0066666667    4.1359329  0.010766004    81.350483    109.65626 
   91000    986.18404   0.33339565    13.737912   0.15113032 0.0066666667    3.9537418   0.01093305    80.894894    108.45433 
   91100    987.21595   0.33386023    13.753188   0.15113032 0.0066666667    4.6947212  0.010621139     80.89842    107.25231 
   91200    988.20401   0.33353581    13.766959   0.15113032 0.0066666667    4.4989832 0.0094552321    80.261979    106.05117 
   91300    989.25683   0.33432897    13.781019   0.15113032 0.0066666667    3.7151112  0.011364035    81.706892    104.84783 
   91400    990.33823   0.33497281    13.796932   0.15113032 0.0066666667    4.5395584  0.010708367    81.346381    103.64496 
   91500    991.41454   0.33363566    13.812616   0.15113032 0.0066666667    4.6474095  0.010405736    80.702107    102.44294 
   91600    992.47666   0.33483104    13.828339   0.15113032 0.0066666667    4.3847405  0.010522166    80.083476    101.24171 
   91700    993.52272   0.33475116    13.843863   0.15113032 0.0066666667    3.7610151 0.0098496039    81.820409    100.03799 
   91800    994.51156    0.3341179    13.858093   0.15113032 0.0066666667    4.1607792   0.01056073    81.782471    98.834273 
   91900    995.56081   0.33366935     13.87324   0.15113032 0.0066666667    4.2207882  0.011073849    81.445485    97.630962 
   92000     996.6448    0.3332389    13.888648   0.15113032 0.0066666667    3.9607486 0.0099423698    80.404917    96.428979 
   92100    997.70231   0.33327565    13.903589   0.15113032 0.0066666667    4.3598361  0.010316116    80.770037    95.226424 
   92200    998.79762   0.33238065    13.919006   0.15113032 0.0066666667     3.913555  0.011052664    80.794573    94.023759 
   92300    999.87448   0.33425795    13.933911   0.15113032 0.0066666667    3.8534297  0.010940823    80.841461    92.820959 
   92400    1000.9631   0.33390292    13.947617   0.15113032 0.0066666667    3.6923078  0.011466087    81.142678    91.617707 
   92500    1002.0328   0.33367155    13.962085   0.15113032 0.0066666667    3.9252243  0.010914866    80.512834    90.415173 
   92600    1003.1097   0.33454848    13.976133   0.15113032 0.0066666667    3.7778472  0.010129956    81.192487    89.211724 
   92700    1004.1994   0.33465069    13.991437   0.15113032 0.0066666667    3.8879409  0.010545899    81.760933    88.007539 
   92800    1005.2899   0.33485449     14.00576   0.15113032 0.0066666667    3.5995779  0.010568596    81.932962    86.803115 
   92900    1006.3502   0.33391071    14.020149   0.15113032 0.0066666667    3.5502079  0.011003463    82.211498     85.59834 
   93000    1007.4162   0.33415836    14.034982   0.15113032 0.0066666667    3.6276117   0.01106563    79.567219    84.396582 
   93100    1008.4908   0.33475564    14.049545   0.15113032 0.0066666667    4.3586411  0.010694505    81.270077    83.192755 
   93200    1009.5664   0.33513225    14.063375   0.15113032 0.0066666667    3.9771592  0.011221867    82.568615    81.987458 
   93300    1010.6312   0.33394681    14.077435   0.15113032 0.0066666667    4.1269734  0.011307494    81.857919    80.782904 
   93400    1011.6795   0.33445717     14.09097   0.15113032 0.0066666667    3.9874572 0.0089849734    82.122033    79.578036 
   93500    1012.5647   0.33342105    14.102214   0.15113032 0.0066666667     3.973423 0.0087194077    81.970703    78.373297 
   93600    1013.5256    0.3333105    14.114592   0.15113032 0.0066666667     4.209801  0.010534124    80.493906    77.170056 
   93700    1014.5645   0.33480478    14.127655   0.15113032 0.0066666667    3.9939584 0.0094607457    81.464277    75.965736 
   93800     1015.542   0.33529231    14.140241   0.15113032 0.0066666667    3.6554706 0.0099036143    82.602438    74.760249 
   93900    1016.5475   0.33650395    14.154101   0.15113032 0.0066666667    4.4105509  0.011104686    82.542503    73.554808 
   94000    1017.6366   0.33559358    14.168404   0.15113032 0.0066666667    3.9369531  0.011088985    82.200139    72.349676 
   94100    1018.7005   0.33460562    14.183066   0.15113032 0.0066666667    4.1146698   0.01080626    82.902787    71.143873 
   94200    1019.7239   0.33536172    14.196343   0.15113032 0.0066666667    3.8222485 0.0094617981    82.341001    69.938576 
   94300    1020.7668   0.33434971    14.209996   0.15113032 0.0066666667    3.6747227  0.010283316      83.6086    68.732147 
   94400    1021.8267   0.33439366    14.223839   0.15113032 0.0066666667    3.9244607  0.010900492    82.633635    67.526577 
   94500    1022.8698   0.33455336    14.238058   0.15113032 0.0066666667    4.7550409  0.010388512     82.59855    66.321027 
   94600    1023.9017   0.33453292    14.251975   0.15113032 0.0066666667    3.9237414  0.010515009    81.727796    65.116203 
   94700    1024.9681   0.33509656    14.266487   0.15113032 0.0066666667    3.7633681  0.010887267    81.520185    63.911513 
   94800    1026.0709   0.33388908    14.282363   0.15113032 0.0066666667    4.1701002  0.011078362    82.199059    62.706222 
   94900    1027.1583   0.33481867    14.296712   0.15113032 0.0066666667    3.9781389  0.011397239    81.922288    61.501127 
   95000    1028.2511   0.33531893    14.310123   0.15113032 0.0066666667    3.6135166   0.01108289    81.135568    60.296623 
   95100    1029.3412   0.33358803    14.324782   0.15113032 0.0066666667    4.0307027  0.011389296     82.18677    59.091247 
   95200    1030.4276   0.33364166    14.338686   0.15113032 0.0066666667    4.0176489 0.0097765472    81.285749    57.886528 
   95300     1031.475    0.3351371    14.351764   0.15113032 0.0066666667    3.7952935  0.010951767    82.980169    56.680516 
   95400    1032.5602   0.33491847    14.366247   0.15113032 0.0066666667     3.924978 0.0098734862    83.315635    55.474272 
   95500    1033.6341   0.33314237    14.380219   0.15113032 0.0066666667    3.6125138  0.011327679    81.917792    54.269006 
   95600    1034.7348   0.33512024    14.394224   0.15113032 0.0066666667     3.909602  0.010440863    82.430587    53.063357 
   95700    1035.8278   0.33351334    14.408843   0.15113032 0.0066666667    4.4660439 0.0099552177    82.977083    51.857335 
   95800    1036.8849   0.33306219    14.422553   0.15113032 0.0066666667    3.5583636  0.010299917    81.729197     50.65212 
   95900    1038.0071   0.33471595    14.437575   0.15113032 0.0066666667    3.8459178  0.010949062    82.372049    49.446459 
   96000    1039.1178   0.33358938    14.452093   0.15113032 0.0066666667    3.4839073  0.011669174     81.91592    48.241063 
   96100    1040.2225   0.33562128    14.465563   0.15113032 0.0066666667    3.8298541  0.011492137    81.009889    47.036189 
   96200    1041.3415   0.33520615     14.47923   0.15113032 0.0066666667    3.8760203   0.01092586    82.220764    45.830535 
   96300    1042.3882   0.33421898     14.49301   0.15113032 0.0066666667    3.6631752  0.010977205    82.126471    44.624912 
   96400    1043.4941   0.33298766    14.506816   0.15113032 0.0066666667    3.9159725  0.011293922    81.415731    43.419662 
   96500    1044.5711   0.33482569    14.519642   0.15113032 0.0066666667    3.8820221  0.010563587    81.687732    42.214216 
   96600    1045.6235   0.33472015    14.533328   0.15113032 0.0066666667    4.0785016  0.011124259     82.73037    41.008188 
   96700    1046.7157   0.33560395    14.547413   0.15113032 0.0066666667    4.0389927  0.010761708    81.613392    39.802719 
   96800    1047.8015    0.3355966    14.561416   0.15113032 0.0066666667    4.0038014  0.010725551    81.938532    38.597048 
   96900    1048.8517   0.33595255    14.575378   0.15113032 0.0066666667    3.9627386  0.011221129    82.265402    37.391192 
   97000    1049.9381   0.33514023     14.58899   0.15113032 0.0066666667    4.2850308  0.009994616    81.324473     36.18575 
   97100    1050.9927   0.33566376    14.602145   0.15113032 0.0066666667    3.7575675 0.0098717318    81.681528    34.980098 
   97200    1052.0494   0.33448948    14.616899   0.15113032 0.0066666667    4.0331883  0.010895197     82.29599    33.774145 
   97300    1053.1598   0.33568102    14.631172   0.15113032 0.0066666667    4.0907802  0.011101148    81.716905    32.568411 
   97400    1054.2184   0.33448715    14.645463   0.15113032 0.0066666667    3.7957125  0.010053023    81.059033    31.362906 
   97500    1055.3071   0.33475961     14.65966   0.15113032 0.0066666667    3.7490562   0.01160844    82.976738    30.156612 
   97600     1056.435   0.33438771    14.674255   0.15113032 0.0066666667    3.7311693  0.011309309    82.147526     28.95062 
   97700    1057.5547   0.33396267    14.688938   0.15113032 0.0066666667    3.8730659  0.010903472    82.155362    27.744601 
   97800    1058.6521   0.33438133    14.704146   0.15113032 0.0066666667    4.1771227  0.010890649    81.038266    26.538937 
   97900    1059.6766   0.33395308    14.718347   0.15113032 0.0066666667    3.9949409 0.0098706554    82.022416    25.332898 
   98000     1060.681     0.334913    14.731359   0.15113032 0.0066666667    3.9667263 0.0097913786    81.447873    24.127007 
   98100    1061.6624   0.33529583    14.745118   0.15113032 0.0066666667    3.9653891  0.010394051    81.212547    22.921141 
   98200    1062.7132    0.3327046    14.759952   0.15113032 0.0066666667    3.6852809  0.010502633    81.710887    21.715085 
   98300    1063.7376   0.33458886    14.773878   0.15113032 0.0066666667    4.7101263  0.010337841    79.861431    20.509483 
   98400     1064.781   0.33363956    14.788496   0.15113032 0.0066666667    4.3130909 0.0095116803    74.030973     19.30539 
   98500    1065.7691   0.33334601    14.802723   0.15113032 0.0066666667    4.5760564  0.010398291    74.217998    18.100947 
   98600    1066.7984   0.33434718    14.818802   0.15113032 0.0066666667    4.2257181  0.010390042    74.155748     16.89623 
   98700    1067.8813   0.33372945    14.834058   0.15113032 0.0066666667    3.8270103 0.0096069096    73.579892    15.691361 
   98800    1068.8863   0.33478665    14.849136   0.15113032 0.0066666667    3.9245668  0.010690637    73.602643    14.486175 
   98900    1069.9396   0.33439051    14.865449   0.15113032 0.0066666667    4.4157252  0.010242591    78.815056    13.279679 
   99000    1070.9831    0.3345855    14.880441   0.15113032 0.0066666667    4.2421944  0.010219902    81.117742    12.072693 
   99100    1072.0249   0.33392783    14.895847   0.15113032 0.0066666667    4.1150667  0.010125972    81.013049     10.86567 
   99200    1072.9804   0.33426248     14.91057   0.15113032 0.0066666667    4.5246956  0.010554051    79.820047    9.6587406 
   99300    1074.0265   0.33431066    14.926923   0.15113032 0.0066666667    4.1847503  0.011089117    81.415399    8.4515455 
   99400    1075.0853   0.33437426    14.942588   0.15113032 0.0066666667    3.7898119 0.0097730477    81.194923    7.2443282 
   99500    1076.0227   0.33363226    14.956829   0.15113032 0.0066666667     4.530305 0.0087368044    81.209182    6.0370608 
   99600    1076.9227   0.33471102    14.970903   0.15113032 0.0066666667    4.3154346 0.0096451468    81.530358    4.8297254 
   99700    1077.8679   0.33390911    14.985316   0.15113032 0.0066666667    4.7979032  0.008709782    81.281448    3.6223629 
   99800    1078.8578   0.33451648    14.999058   0.15113032 0.0066666667    4.2693645 0.0097467751    81.871645    2.4149366 
   99900    1079.9289   0.33358345    15.014106   0.15113032 0.0066666667    4.3591018  0.010861718    81.834809    1.2074828 
  100000    1081.0136   0.33388146    15.029008   0.15113032 0.0066666667     3.680443  0.010921895    78.732399            0 
Loop time of 1207.55 on 4 procs for 100000 steps with 180747 atoms

Performance: 78146.266 tau/day, 82.813 timesteps/s
220.0% CPU use with 1 MPI tasks x 4 OpenMP threads

MPI task timing breakdown:
Section |  min time  |  avg time  |  max time  |%varavg| %total
---------------------------------------------------------------
Pair    | 384.05     | 384.05     | 384.05     |   0.0 | 31.80
Neigh   | 18.258     | 18.258     | 18.258     |   0.0 |  1.51
Comm    | 133.22     | 133.22     | 133.22     |   0.0 | 11.03
Output  | 3.4255     | 3.4255     | 3.4255     |   0.0 |  0.28
Modify  | 596.54     | 596.54     | 596.54     |   0.0 | 49.40
Other   |            | 72.06      |            |       |  5.97

Nlocal:    180747 ave 180747 max 180747 min
Histogram: 1 0 0 0 0 0 0 0 0 0
Nghost:    66983 ave 66983 max 66983 min
Histogram: 1 0 0 0 0 0 0 0 0 0
Neighs:    0 ave 0 max 0 min
Histogram: 1 0 0 0 0 0 0 0 0 0

Total # of neighbors = 0
Ave neighs/atom = 0
Neighbor list builds = 28643
Dangerous builds = 0

Please see the log.cite file for references relevant to this simulation

Total wall time: 0:20:57
