#package gpu 1
#suffix gpu
# variable rho equal 0.03

units lj
atom_style atomic

lattice fcc 0.975
Lattice spacing in x,y,z = 1.60085 1.60085 1.60085
region box block 0 60 0 30 0 30
create_box 2 box
Created orthogonal box = (0 0 0) to (96.0513 48.0256 48.0256)
  1 by 1 by 1 MPI processor grid
create_atoms 1 box
Created 216000 atoms
  Time spent = 0.0405431 secs
mass 1 4.0
mass 2 0.5


pair_style lj/cut 2.5
pair_coeff 1 1 1.0 1.0 2.5
pair_coeff 2 2 0.5 0.88 2.5
pair_coeff 1 2 0.2 1.0 2.5
#pair_coeff 1 2 1.5 0.8 2.5
pair_modify mix geometric
neigh_modify every 1 delay 0 check yes

variable R equal 12
region cylinder1 cylinder x $(0.5*ly) $(0.5*lz) $R EDGE EDGE units box
region cylinder1 cylinder x 24.012813670346833561 $(0.5*lz) $R EDGE EDGE units box
region cylinder1 cylinder x 24.012813670346833561 24.012813670346833561 $R EDGE EDGE units box
region cylinder1 cylinder x 24.012813670346833561 24.012813670346833561 12 EDGE EDGE units box

group cylinder1 region cylinder1
41820 atoms in group cylinder1
variable V equal PI*v_R*v_R*lx
# variable rho equal 0.1
variable natoms equal $V*${rho}
variable natoms equal 43452.5639148185*${rho}
variable natoms equal 43452.5639148185*0.008
variable natoms_in_cylinder equal count(cylinder1)
variable delete_fraction equal (${natoms_in_cylinder}-${natoms})/${natoms_in_cylinder}
variable delete_fraction equal (41820-${natoms})/${natoms_in_cylinder}
variable delete_fraction equal (41820-347.620511318548)/${natoms_in_cylinder}
variable delete_fraction equal (41820-347.620511318548)/41820
set group cylinder1 type 2
  41820 settings made for type
delete_atoms porosity cylinder1 ${delete_fraction} 12345
delete_atoms porosity cylinder1 0.991687697003382 12345
Deleted 41489 atoms, new total = 174511
#delete_atoms region cylinder1

region cylinder2 cylinder x $(0.5*ly) $(0.5*lz) $(v_R+6) EDGE EDGE units box
region cylinder2 cylinder x 24.012813670346833561 $(0.5*lz) $(v_R+6) EDGE EDGE units box
region cylinder2 cylinder x 24.012813670346833561 24.012813670346833561 $(v_R+6) EDGE EDGE units box
region cylinder2 cylinder x 24.012813670346833561 24.012813670346833561 18 EDGE EDGE units box
region cylinder3 cylinder x $(0.5*ly) $(0.5*lz) $(v_R+11) EDGE EDGE units box
region cylinder3 cylinder x 24.012813670346833561 $(0.5*lz) $(v_R+11) EDGE EDGE units box
region cylinder3 cylinder x 24.012813670346833561 24.012813670346833561 $(v_R+11) EDGE EDGE units box
region cylinder3 cylinder x 24.012813670346833561 24.012813670346833561 23 EDGE EDGE units box
group cylinder2 region cylinder2
54331 atoms in group cylinder2
group cylinder3 region cylinder3
114091 atoms in group cylinder3

group nve region cylinder3
114091 atoms in group nve
group langevin subtract cylinder3 cylinder2
59760 atoms in group langevin
group frozen subtract all cylinder3
60420 atoms in group frozen

region force cylinder x $(0.5*ly) $(0.5*lz) $(v_R-1) EDGE EDGE units box
region force cylinder x 24.012813670346833561 $(0.5*lz) $(v_R-1) EDGE EDGE units box
region force cylinder x 24.012813670346833561 24.012813670346833561 $(v_R-1) EDGE EDGE units box
region force cylinder x 24.012813670346833561 24.012813670346833561 11 EDGE EDGE units box
group inner dynamic all region cylinder1 every 1
dynamic group inner defined
#group gas dynamic all region force every 1
group gas type 2
331 atoms in group gas

fix nve nve nve
fix langevin langevin langevin 0.50 0.50 1.0 12345 zero yes

variable gascount equal count(gas)

variable dP equal 0.001
variable measured_rho equal mass(gas)/(PI*(v_R-1)*(v_R-1)*lx)
variable force equal v_dP/v_measured_rho
variable force equal v_dP/v_rho

velocity all create 0.1 87287
velocity frozen set 0 0 0

compute chunk all chunk/atom bin/cylinder x lower $(lx) $(0.5*ly) $(0.5*lz) 0 $(v_R+5) 30 units box
compute chunk all chunk/atom bin/cylinder x lower 96.051254681387334244 $(0.5*ly) $(0.5*lz) 0 $(v_R+5) 30 units box
compute chunk all chunk/atom bin/cylinder x lower 96.051254681387334244 24.012813670346833561 $(0.5*lz) 0 $(v_R+5) 30 units box
compute chunk all chunk/atom bin/cylinder x lower 96.051254681387334244 24.012813670346833561 24.012813670346833561 0 $(v_R+5) 30 units box
compute chunk all chunk/atom bin/cylinder x lower 96.051254681387334244 24.012813670346833561 24.012813670346833561 0 17 30 units box

compute displacement nve displace/atom
compute mean_displacement nve reduce ave c_displacement[4]

compute vmax all reduce max vx
variable volume equal count(gas)/v_V

thermo_style custom step time temp c_mean_displacement v_volume v_force c_vmax dt spcpu cpuremain
thermo 100

compute keAtom all ke/atom
dump dump all custom 1000 trajectory_l.bin id type x y z c_keAtom

fix flow gas addforce v_force 0.0 0.0
run 5000
No /omp style for force computation currently active
Per MPI rank memory allocation (min/avg/max) = 85.71 | 85.71 | 85.71 Mbytes
Step Time Temp c_mean_displacement v_volume v_force c_vmax Dt S/CPU CPULeft 
       0            0  0.065455844            0 0.0076175022        0.125   0.77453183        0.005            0            0 
     100          0.5  0.098120622  0.057507438 0.0076175022        0.125   0.98901745        0.005    105.41506    46.482968 
     200            1   0.14539615  0.087311491 0.0076175022        0.125     1.713351        0.005    110.55698    44.475431 
     300          1.5   0.16990554   0.11880236 0.0076175022        0.125    1.6678377        0.005    111.06497    43.138432 
     400            2   0.18730253   0.14357228 0.0076175022        0.125    1.8135374        0.005     111.0122    42.024669 
     500          2.5   0.19934243   0.16215404 0.0076175022        0.125    1.9656709        0.005    111.05026    40.993308 
     600            3   0.20727488   0.17397903 0.0076175022        0.125    1.7307405        0.005    110.91972    40.013342 
     700          3.5   0.21327547   0.17730739 0.0076175022        0.125     2.162019        0.005    111.38995    39.032402 
     800            4   0.21812757   0.17253548 0.0076175022        0.125    2.2525743        0.005    110.94739     38.09106 
     900          4.5   0.22562725   0.16193692 0.0076175022        0.125    2.4291846        0.005    110.90104    37.160327 
    1000            5    0.2306594   0.14813592 0.0076175022        0.125    2.3484334        0.005    109.96515    36.266096 
    1100          5.5   0.23624729   0.13394024 0.0076175022        0.125    2.3518655        0.005    108.71018     35.40633 
    1200            6   0.23981301   0.12268128 0.0076175022        0.125     2.443652        0.005    109.90749    34.504814 
    1300          6.5   0.24255083   0.11529671 0.0076175022        0.125    2.6593449        0.005    108.93934    33.625031 
    1400            7   0.24636996   0.11352681 0.0076175022        0.125    2.7170526        0.005    109.31041    32.731778 
    1500          7.5   0.25017092   0.11511552 0.0076175022        0.125    3.0518565        0.005    107.03728    31.880984 
    1600            8   0.25342996   0.11837539 0.0076175022        0.125    2.9465503        0.005     107.4408    31.012301 
    1700          8.5   0.25714285   0.12189958 0.0076175022        0.125    3.0989218        0.005    108.03265    30.126418 
    1800            9   0.26139345   0.12507989 0.0076175022        0.125    3.3457514        0.005     106.9193    29.253253 
    1900          9.5   0.26568436   0.12713161 0.0076175022        0.125    3.2778585        0.005    107.44278    28.366114 
    2000           10   0.26892878   0.12977802 0.0076175022        0.125    4.1417832        0.005    107.01401     27.48021 
    2100         10.5   0.27332266   0.13246394 0.0076175022        0.125    3.9792041        0.005    105.40884    26.609332 
    2200           11   0.27608482   0.13630571 0.0076175022        0.125    4.0540177        0.005    104.42512    25.742756 
    2300         11.5   0.27842021   0.14189178 0.0076175022        0.125    4.1181116        0.005    105.67955    24.854918 
    2400           12   0.28089005   0.14777986 0.0076175022        0.125    4.2219197        0.005    106.66528    23.952737 
    2500         12.5   0.28392839   0.15373294 0.0076175022        0.125    4.3466642        0.005    107.81532    23.037732 
    2600           13   0.28468585   0.15930938 0.0076175022        0.125    4.4739969        0.005    106.48606    22.132451 
    2700         13.5   0.28670437   0.16366253 0.0076175022        0.125     4.603916        0.005    105.89901    21.229101 
    2800           14   0.28744893   0.16680029 0.0076175022        0.125    4.7262919        0.005    106.67415    20.317434 
    2900         14.5   0.28909298   0.16872929 0.0076175022        0.125    4.8450904        0.005    105.31517    19.412749 
    3000           15   0.29086998   0.16985358 0.0076175022        0.125    4.9700904        0.005    104.72081    18.508669 
    3100         15.5    0.2924159   0.17113491 0.0076175022        0.125    5.2218259        0.005    104.97386    17.599897 
    3200           16   0.29390931   0.17255046 0.0076175022        0.125     5.263698        0.005    104.25083      16.6921 
    3300         16.5    0.2954026   0.17402413 0.0076175022        0.125    5.3888651        0.005     104.9731    15.777788 
    3400           17   0.29642402   0.17588503 0.0076175022        0.125    5.5145552        0.005    105.66906    14.858269 
    3500         17.5   0.29820398   0.17851978 0.0076175022        0.125    5.6262911        0.005    103.49565    13.945734 
    3600           18   0.29929659   0.18180369 0.0076175022        0.125    5.7343731        0.005    104.02666    13.028298 
    3700         18.5   0.29957572   0.18512042 0.0076175022        0.125    5.8586071        0.005    104.06889    12.108355 
    3800           19   0.30109037   0.18908737 0.0076175022        0.125    6.0492081        0.005    103.98545    11.186499 
    3900         19.5   0.30326813   0.19323467 0.0076175022        0.125    6.1086071        0.005    103.09035    10.264956 
    4000           20   0.30409059   0.19774505 0.0076175022        0.125    6.2336071        0.005    101.87822     9.343875 
    4100         20.5   0.30565106    0.2019611 0.0076175022        0.125    6.3586071        0.005    102.04208    8.4194974 
    4200           21   0.30908037   0.20635041 0.0076175022        0.125    6.4836071        0.005    102.83325    7.4910354 
    4300         21.5   0.30872535   0.21187585 0.0076175022        0.125    6.8348484        0.005    103.45927    6.5595697 
    4400           22    0.3110806   0.21695769 0.0076175022        0.125    6.7218579        0.005    103.60494    5.6263234 
    4500         22.5   0.31212787   0.22263834 0.0076175022        0.125    6.8468579        0.005    102.69027    4.6926119 
    4600           23   0.31316078   0.22803265 0.0076175022        0.125    6.9752124        0.005    103.13788    3.7567898 
    4700         23.5   0.31432292   0.23314126 0.0076175022        0.125    7.0999423        0.005    103.70841     2.819191 
    4800           24   0.31471704   0.23831731 0.0076175022        0.125    7.2298174        0.005    102.98214    1.8807653 
    4900         24.5   0.31517345   0.24324668 0.0076175022        0.125    7.4034965        0.005    100.43175   0.94151161 
    5000           25   0.31593229    0.2476638 0.0076175022        0.125    7.7982533        0.005    98.489584            0 
Loop time of 47.1494 on 4 procs for 5000 steps with 174511 atoms

Performance: 45811.806 tau/day, 106.046 timesteps/s
228.9% CPU use with 1 MPI tasks x 4 OpenMP threads

MPI task timing breakdown:
Section |  min time  |  avg time  |  max time  |%varavg| %total
---------------------------------------------------------------
Pair    | 15.452     | 15.452     | 15.452     |   0.0 | 32.77
Neigh   | 0.30929    | 0.30929    | 0.30929    |   0.0 |  0.66
Comm    | 4.1787     | 4.1787     | 4.1787     |   0.0 |  8.86
Output  | 0.14476    | 0.14476    | 0.14476    |   0.0 |  0.31
Modify  | 24.172     | 24.172     | 24.172     |   0.0 | 51.27
Other   |            | 2.893      |            |       |  6.14

Nlocal:    174511 ave 174511 max 174511 min
Histogram: 1 0 0 0 0 0 0 0 0 0
Nghost:    66630 ave 66630 max 66630 min
Histogram: 1 0 0 0 0 0 0 0 0 0
Neighs:    0 ave 0 max 0 min
Histogram: 1 0 0 0 0 0 0 0 0 0

Total # of neighbors = 0
Ave neighs/atom = 0
Neighbor list builds = 693
Dangerous builds = 0

reset_timestep 0
fix vx all ave/chunk 10 100000 1000000 chunk vx ave running file velocity_l.txt

fix dt all dt/reset 10 NULL NULL 0.05 units box

run 1000000
No /omp style for force computation currently active
Per MPI rank memory allocation (min/avg/max) = 95.08 | 95.08 | 95.08 Mbytes
Step Time Temp c_mean_displacement v_volume v_force c_vmax Dt S/CPU CPULeft 
       0           25   0.31593229    0.2476638 0.0076175022        0.125    7.7982533  0.006350706            0            0 
     100    25.617323   0.31630154   0.25270763 0.0076175022        0.125    8.0188756 0.0061789366    90.656331    11029.578 
     200    26.235937    0.3169844   0.25802266 0.0076175022        0.125    7.9681793 0.0061874193    90.770122    11021.555 
     300    26.855799   0.31716396    0.2632564 0.0076175022        0.125    7.9998107 0.0061574765    89.416242    11073.734 
     400    27.466456   0.31746083   0.26782829 0.0076175022        0.125     8.152475 0.0060454725    88.960776    11113.573 
     500    28.056541   0.31928146   0.27274472 0.0076175022        0.125    8.2999963 0.0057768273    90.560263    11097.339 
     600     28.63352   0.31985161   0.27777149 0.0076175022        0.125    8.4442409 0.0058422197    89.829986      11101.1 
     700     29.21338   0.32197951   0.28300225 0.0076175022        0.125     8.589206 0.0057461655    89.477225    11109.735 
     800    29.783843   0.32138141    0.2884821 0.0076175022        0.125    8.7318217 0.0056546626    89.035842    11122.851 
     900    30.345347   0.32131857    0.2940736 0.0076175022        0.125    8.8721979  0.005567364    88.817607    11135.865 
    1000      30.8983   0.32183417   0.29980048 0.0076175022        0.125    9.0104359 0.0054839588    88.411232    11151.224 
    1100    31.443069   0.32321076   0.30475507 0.0076175022        0.125    9.1464231 0.0054035244    88.902794    11157.904 
    1200    31.979046   0.32385053   0.30980504 0.0076175022        0.125    9.2865836 0.0052969995    88.261726    11170.083 
    1300    32.503235   0.32430558   0.31505341 0.0076175022        0.125    9.6042415 0.0051811885    90.360851    11159.994 
    1400    33.018845   0.32511803   0.32057117 0.0076175022        0.125    9.7406322 0.0051248083    89.706277    11156.949 
    1500      33.5366   0.32494298   0.32528887 0.0076175022        0.125    9.4666874 0.0052565084    89.766043    11153.667 
    1600    34.059038   0.32612079   0.33035648 0.0076175022        0.125    9.5972969 0.0051856391    89.065128    11156.127 
    1700    34.574516     0.325498   0.33512465 0.0076175022        0.125    9.7261664 0.0051175539    89.573075    11154.426 
    1800    35.083304   0.32660369   0.33931133 0.0076175022        0.125    9.8533634 0.0050520754    89.591595    11152.662 
    1900    35.548736   0.32651862    0.3434879 0.0076175022        0.125    10.266199 0.0044577605    91.294938    11140.026 
    2000    35.996638   0.32757796   0.34724155 0.0076175022        0.125    10.327419 0.0044749162    90.628711    11132.563 
    2100    36.433275     0.327053   0.35124769 0.0076175022        0.125    11.001599  0.004298112    89.371183    11133.083 
    2200    36.861409   0.32845019   0.35487301 0.0076175022        0.125    11.108633 0.0042610159    89.187454    11134.499 
    2300     37.28576   0.32800462   0.35824736 0.0076175022        0.125    11.225699 0.0042230307    89.140465    11135.951 
    2400    37.706468   0.32754562   0.36173964 0.0076175022        0.125    11.330876 0.0041877426    88.869772    11138.609 
    2500    38.123684   0.32976135   0.36477355 0.0076175022        0.125    11.434513 0.0041530974    89.340439    11138.599 
    2600    38.537557   0.32885297   0.36801539 0.0076175022        0.125    11.533539 0.0041204666    89.205739    11139.152 
    2700    38.948129   0.32902897   0.37069996 0.0076175022        0.125    11.636062  0.004087623    88.790475    11141.518 
    2800    39.355502    0.3296788   0.37369579 0.0076175022        0.125    11.732707 0.0040565201    89.738252    11139.398 
    2900    39.759651   0.32953845   0.37700043 0.0076175022        0.125    11.881495  0.004002489    89.120047    11140.005 
    3000    40.159503   0.32983226   0.38021726 0.0076175022        0.125    11.860376 0.0039919978    89.579808    11138.583 
    3100    40.563498   0.32927178   0.38357789 0.0076175022        0.125    10.631799 0.0043767681    90.958701    11131.738 
    3200    41.001428   0.33075091   0.38676204 0.0076175022        0.125    10.741282 0.0043685893    90.371948    11127.476 
    3300    41.437154   0.33100806   0.38994771 0.0076175022        0.125    10.882519 0.0043434472     88.87207    11129.046 
    3400    41.870328   0.33182105   0.39276551 0.0076175022        0.125    11.048367 0.0043184988    89.321204    11128.799 
    3500    42.299736   0.33219074   0.39554994 0.0076175022        0.125    10.236168 0.0042938203    89.864534    11126.574 
    3600    42.727873   0.33146376   0.39890024 0.0076175022        0.125    10.339715 0.0042325606    88.957437    11127.552 
    3700    43.192591   0.33199512   0.40235969 0.0076175022        0.125    10.455894 0.0047709368    91.181057    11121.035 
    3800    43.667587   0.33092894   0.40605716 0.0076175022        0.125    10.574669 0.0047223856    89.608075     11119.85 
    3900    44.137453   0.33050454   0.40932311 0.0076175022        0.125    10.692738 0.0046704332    89.677009    11118.449 
    4000    44.597915   0.33244982   0.41194018 0.0076175022        0.125    10.837308 0.0045068464    89.685849    11117.035 
    4100    45.046279   0.33216046   0.41521665 0.0076175022        0.125    10.982853 0.0044624714     88.64849    11118.805 
    4200    45.491767   0.33205758   0.41777149 0.0076175022        0.125     11.15482 0.0044040675    91.145153    11113.111 
    4300    45.930468   0.33219632   0.42022457 0.0076175022        0.125    11.267646 0.0043665258    89.705088     11111.71 
    4400    46.365294   0.33277986   0.42279515 0.0076175022        0.125    11.376334 0.0043261184     88.48289    11113.805 
    4500    46.796101   0.33170403   0.42528357 0.0076175022        0.125     11.49623 0.0042823266    88.652012     11115.28 
    4600    47.222519    0.3313541   0.42765578 0.0076175022        0.125    11.602234  0.004244153    88.953154    11115.815 
    4700    47.645103    0.3320725   0.43015522 0.0076175022        0.125    11.714736 0.0042022441    88.662001    11117.062 
    4800     48.06377   0.33218225   0.43255131 0.0076175022        0.125    11.815504 0.0041670348     88.64345    11118.259 
    4900    48.478879   0.33195395   0.43483906 0.0076175022        0.125     11.92154 0.0041314081    89.029908    11118.366 
    5000    48.890472    0.3318263   0.43727586 0.0076175022        0.125    12.034606 0.0040924662    87.338919    11122.752 
    5100     49.29802   0.33159303   0.43963867 0.0076175022        0.125    12.158505 0.0040595908    89.056145    11122.614 
    5200    49.701214   0.33239797   0.44183701 0.0076175022        0.125    12.310581 0.0040017331    88.806963    11123.041 
    5300    50.100007   0.33342261   0.44406444 0.0076175022        0.125     12.40891 0.0039708534    89.334768     11122.16 
    5400    50.495713   0.33311223   0.44649899 0.0076175022        0.125    12.507837 0.0039403422    88.908956    11122.259 
    5500      50.8884   0.33168067   0.44816114 0.0076175022        0.125    12.606009 0.0039105173    89.295114    11121.433 
    5600    51.278133   0.33201577   0.45017302 0.0076175022        0.125    12.705589 0.0038805908    88.754626    11121.807 
    5700    51.664032   0.33174664   0.45220626 0.0076175022        0.125    12.782507 0.0038447727    88.652949    11122.355 
    5800     52.04722   0.33186423   0.45440806 0.0076175022        0.125    12.914046 0.0038067811    89.522392    11120.967 
    5900    52.426741   0.33034774   0.45676051 0.0076175022        0.125    13.016207 0.0037816859    89.561025    11119.507 
    6000    52.803719   0.33112456   0.45867426 0.0076175022        0.125    13.110451 0.0037553305    89.077972    11119.061 
    6100    53.178086   0.33222279   0.46113357 0.0076175022        0.125    13.204043 0.0037295132    87.439189    11122.021 
    6200      53.5498   0.33224973   0.46312335 0.0076175022        0.125     13.29838 0.0037018796    88.866779    11121.904 
    6300    53.921125   0.33257019   0.46509783 0.0076175022        0.125    13.013953 0.0037595127    89.808444    11119.894 
    6400     54.29702   0.33192017   0.46701018 0.0076175022        0.125    13.087884 0.0037461542    88.575927    11120.318 
    6500    54.670599   0.33168454   0.46932901 0.0076175022        0.125    13.177847 0.0037220116    89.054803    11119.766 
    6600     55.04167   0.33197629    0.4713765 0.0076175022        0.125    13.270269 0.0036974164    89.061554    11119.183 
    6700    55.410302   0.33218419   0.47376724 0.0076175022        0.125    13.362427 0.0036728507    88.728697    11119.209 
    6800    55.776499   0.33192208   0.47607215 0.0076175022        0.125    13.453976 0.0036487624    88.737764    11119.185 
    6900    56.140308   0.33280722   0.47789293 0.0076175022        0.125    13.546324 0.0036247001    89.036012    11118.585 
    7000    56.499985   0.33244217   0.47987043 0.0076175022        0.125    13.686574 0.0035778664    88.322595    11119.257 
    7100    56.858293   0.33209281   0.48174833 0.0076175022        0.125    13.703312 0.0035733384    88.679303    11119.241 
    7200    57.214627   0.33247241   0.48374948 0.0076175022        0.125    13.792395  0.003551194    88.876326     11118.85 
    7300    57.568765    0.3313847   0.48562504 0.0076175022        0.125    13.880929 0.0035294508    89.153103    11117.963 
    7400    57.920746   0.33276174   0.48710697 0.0076175022        0.125    13.968925 0.0035080968    88.509666    11118.164 
    7500    58.270608   0.33219674   0.48908115 0.0076175022        0.125     14.05639 0.0034871207    88.540943    11118.277 
    7600    58.618172   0.33195071    0.4909862 0.0076175022        0.125    14.114039  0.003469333     89.89799    11116.131 
    7700    58.964164   0.33271358   0.49312865 0.0076175022        0.125    14.226359 0.0034469577     88.75288    11115.861 
    7800    59.308022    0.3329862   0.49496921 0.0076175022        0.125     14.34637 0.0034316019    89.981383    11113.612 
    7900    59.650471   0.33277059   0.49677782 0.0076175022        0.125    14.421161 0.0034141397    89.885294    11111.541 
    8000    59.991007   0.33211882   0.49889472 0.0076175022        0.125    14.506295 0.0033947055    87.000254     11114.07 
    8100    60.329615    0.3328797    0.5006949 0.0076175022        0.125    14.590947 0.0033755961    80.221467    11128.401 
    8200    60.666327   0.33128137   0.50275063 0.0076175022        0.125    14.675125 0.0033568027    82.275149    11138.588 
    8300    61.071918   0.33223896   0.50482526 0.0076175022        0.125    8.9088679 0.0047794228    90.193763    11135.751 
    8400    61.549334   0.33185548    0.5076219 0.0076175022        0.125    9.2054216 0.0047724121    89.960019    11133.296 
    8500    62.024805   0.33186956   0.51040789 0.0076175022        0.125    8.9712191 0.0047332032    88.748617    11132.642 
    8600    62.496386    0.3329282   0.51310593 0.0076175022        0.125    9.0891144 0.0046946767    87.984338    11133.105 
    8700    62.968753   0.33138341   0.51579404 0.0076175022        0.125    9.2067736 0.0048431736    90.029495    11130.589 
    8800    63.451047   0.33278243   0.51805051 0.0076175022        0.125     9.321066 0.0047983889     89.00021    11129.553 
    8900    63.928906   0.33261346   0.52106634 0.0076175022        0.125    9.3436813 0.0047544588    88.762177     11128.85 
    9000    64.407722   0.33132619   0.52412068 0.0076175022        0.125    7.9390793 0.0051740906    89.043459    11127.745 
    9100    64.925855   0.33271649    0.5268293 0.0076175022        0.125    8.0655095 0.0051570684    88.781097    11127.002 
    9200    65.439134   0.33254531   0.52913168 0.0076175022        0.125     8.192772 0.0051022358    88.816967    11126.201 
    9300    65.970421   0.33201783   0.53185724 0.0076175022        0.125    8.3200094 0.0053920968    88.593963    11125.696 
    9400    66.507438    0.3319029   0.53464401 0.0076175022        0.125    8.4542636 0.0053434819    88.538046    11125.252 
    9500    67.039535   0.33242237     0.537483 0.0076175022        0.125    8.5901437 0.0052660732    88.862429    11124.364 
    9600    67.573989   0.33303048     0.540377 0.0076175022        0.125    8.7382846  0.005337132    89.658989    11122.439 
    9700    68.104751   0.33229431   0.54391936 0.0076175022        0.125     8.912961 0.0052718304    89.731975    11120.438 
    9800    68.629052   0.33261777   0.54679567 0.0076175022        0.125    9.0388576 0.0052054563    88.744936    11119.708 
    9900    69.153102   0.33308432   0.54943725 0.0076175022        0.125      9.16839 0.0054317369    90.392359    11116.917 
   10000    69.693132   0.33275828   0.55194552 0.0076175022        0.125    9.2970266 0.0053568495     88.14324    11116.953 
   10100    70.223521   0.33183486   0.55461901 0.0076175022        0.125    9.4517521 0.0052573424    88.438598    11116.595 
   10200    70.758417   0.33275588   0.55674635 0.0076175022        0.125    8.8650058 0.0055936852    88.929371    11115.616 
   10300    71.315671   0.33288505   0.55900453 0.0076175022        0.125    8.9973798  0.005529728    88.825318    11114.761 
   10400    71.864909   0.33188891   0.56187174 0.0076175022        0.125    9.1346893 0.0054474078    89.202723    11113.448 
   10500    72.406078   0.33242528    0.5649536 0.0076175022        0.125    9.2699814 0.0053686486    88.200774    11113.338 
   10600    72.938022   0.33202932   0.56795768 0.0076175022        0.125    9.3780899 0.0052805898    89.274549    11111.936 
   10700    73.466208   0.33142331   0.57060472 0.0076175022        0.125    9.4253885 0.0052492464    89.057828    11110.791 
   10800    73.987937    0.3325049   0.57313743 0.0076175022        0.125    9.5581802 0.0051782285    88.186383    11110.663 
   10900    74.502681    0.3317897   0.57574969 0.0076175022        0.125    9.6885746 0.0051103677    88.604088    11110.032 
   11000    75.010778   0.33322396   0.57829356 0.0076175022        0.125    9.8155988 0.0050454939    88.403424    11109.622 
   11100    75.509858   0.33152462   0.58125464 0.0076175022        0.125    9.9581799 0.0049517685    88.169643    11109.466 
   11200     76.00239   0.33184923    0.5838725 0.0076175022        0.125    10.072869 0.0048943291    88.567847    11108.842 
   11300    76.495802   0.33115225   0.58687036 0.0076175022        0.125    8.8589537 0.0049830848    89.210919    11107.498 
   11400    76.993397   0.33182309   0.58951025 0.0076175022        0.125    8.9113014 0.0049557862    90.027717    11105.275 
   11500    77.486075    0.3319591   0.59232028 0.0076175022        0.125     9.416859 0.0049357143     88.80104    11104.391 
   11600    77.980671   0.33187152   0.59458038 0.0076175022        0.125    9.4169628 0.0049217306    89.955157    11102.271 
   11700    78.470381   0.33223112   0.59711106 0.0076175022        0.125    9.5393902 0.0048673091    88.650513     11101.55 
   11800    78.954725   0.33178477   0.59934192 0.0076175022        0.125    9.6604762 0.0048145633    88.708486    11100.761 
   11900    79.433862   0.33071048   0.60184199 0.0076175022        0.125    9.7806261 0.0047629544    88.302866    11100.397 
   12000    79.907921   0.33281364   0.60388513 0.0076175022        0.125    9.8986536 0.0047134479    88.373026    11099.945 
   12100    80.377073   0.33168574   0.60652441 0.0076175022        0.125     10.01497  0.004665148    88.726351    11099.114 
   12200    80.841239   0.33176318   0.60872597 0.0076175022        0.125     10.10326  0.004614768    87.920967    11099.114 
   12300    81.315731   0.33235262   0.61145542 0.0076175022        0.125    7.9764878 0.0051121311    89.183718    11097.803 
   12400    81.830173   0.33330306   0.61447504 0.0076175022        0.125    8.1050981 0.0051502995    91.331039    11094.395 
   12500    82.345333   0.33340057   0.61751733 0.0076175022        0.125    8.2338882 0.0051563627    90.630434    11091.692 
   12600     82.86805   0.33155048   0.62092315 0.0076175022        0.125    8.4366617 0.0054308708     89.88046    11089.737 
   12700    83.411007   0.33177613   0.62307083 0.0076175022        0.125    8.5264485 0.0054253087    89.171621    11088.482 
   12800    83.952789   0.33245786   0.62568907 0.0076175022        0.125    8.6778714 0.0053746639    88.425137     11087.96 
   12900    84.502858   0.33207085   0.62791612 0.0076175022        0.125    8.8153887 0.0055286229    88.731775    11087.129 
   13000    85.052063   0.33145932   0.63080863 0.0076175022        0.125    8.9526897 0.0054479715    88.712501    11086.312 
   13100    85.593355     0.331049    0.6340301 0.0076175022        0.125    9.0880129 0.0053706955    88.616181    11085.583 
   13200    86.127064   0.33134065   0.63622525 0.0076175022        0.125    9.2214401 0.0052965682    88.518127    11084.941 
   13300    86.649492   0.33053007   0.63908087 0.0076175022        0.125    9.3790278 0.0051817582    89.762182     11083.13 
   13400    87.164682   0.33097138   0.64146761 0.0076175022        0.125     9.507274  0.005115608    89.544027    11081.529 
   13500    87.673345   0.33207036   0.64442697 0.0076175022        0.125    9.6344398 0.0050516536     88.73431    11080.681 
   13600    88.167379    0.3317765   0.64730044 0.0076175022        0.125    9.7037478 0.0048463114    90.485358    11078.246 
   13700    88.649385   0.33232411     0.650383 0.0076175022        0.125    9.7960971  0.004780292    88.833615     11077.31 
   13800    89.135421   0.33166958   0.65371173 0.0076175022        0.125    9.1184685 0.0051979602    90.047257    11075.287 
   13900    89.660497   0.33153825   0.65711111 0.0076175022        0.125    7.1120669 0.0052633812    89.276791    11073.958 
   14000    90.185288   0.33132634   0.66018136 0.0076175022        0.125    7.2432646 0.0052285232     88.07631    11073.706 
   14100    90.707018   0.33305462   0.66317042 0.0076175022        0.125    7.3758541 0.0052037477    89.051872    11072.572 
   14200    91.225823   0.33229521   0.66591662 0.0076175022        0.125     7.256943 0.0051680663    88.599952    11071.836 
   14300    91.794891    0.3320977   0.66909455 0.0076175022        0.125    7.3992099 0.0060237831    89.585663    11070.239 
   14400     92.39434   0.33283327   0.67199826 0.0076175022        0.125    7.5492177 0.0059599453     88.74918    11069.368 
   14500    92.988069   0.33095617   0.67551491 0.0076175022        0.125    7.6976499 0.0059490597    88.673941    11068.559 
   14600    93.564322   0.33173922   0.67893291 0.0076175022        0.125    8.7832418 0.0050757155     90.81275    11065.953 
   14700    94.069333   0.33249912   0.68148803 0.0076175022        0.125    8.9085151 0.0050187014    89.236713     11064.67 
   14800    94.585256   0.33272881   0.68454105 0.0076175022        0.125    7.9354193 0.0058961983    90.257987    11062.546 
   14900    95.155726   0.33124012   0.68866794 0.0076175022        0.125     8.076851 0.0056524875    89.322726    11061.203 
   15000    95.717393   0.33216609   0.69163457 0.0076175022        0.125     8.192139 0.0055585343    88.192521    11060.804 
   15100    96.284564   0.33284077   0.69439113 0.0076175022        0.125    8.1609004 0.0056986208    90.425313     11058.57 
   15200    96.854748   0.33366846   0.69719908 0.0076175022        0.125    8.3070654 0.0057049058    92.231702    11054.947 
   15300    97.424223   0.33287652   0.70026988 0.0076175022        0.125    7.9819715 0.0056497808    90.953573    11052.338 
   15400     97.98619   0.33285938   0.70320281 0.0076175022        0.125    8.0867645 0.0055852564    89.822811    11050.634 
   15500    98.541476   0.33253056   0.70660489 0.0076175022        0.125    7.6092729 0.0055136967    89.013507     11049.58 
   15600    99.095449   0.33128814   0.70983519 0.0076175022        0.125    7.6797473 0.0057559935     89.48217    11048.154 
   15700    99.697961   0.33212367   0.71280427 0.0076175022        0.125    7.7751375 0.0063455839    89.822734    11046.466 
   15800    100.32733   0.33233291   0.71683942 0.0076175022        0.125    7.9253936 0.0062277654    89.758301    11044.835 
   15900    100.94483   0.33217733   0.72054929 0.0076175022        0.125    8.0797689 0.0061117289     88.54399    11044.157 
   16000    101.54554   0.33297725   0.72380309 0.0076175022        0.125     8.229287 0.0059500471    89.651285    11042.614 
   16100    102.13896   0.33250205   0.72735963 0.0076175022        0.125    8.2965211 0.0059081884     90.69136    11040.296 
   16200    102.72752    0.3338915   0.73064549 0.0076175022        0.125    8.3966131 0.0058568654     89.55982    11038.838 
   16300    103.30883   0.33244363    0.7341371 0.0076175022        0.125    8.5419396 0.0057603907    88.866534    11037.911 
   16400     103.8807    0.3323215   0.73695009 0.0076175022        0.125    8.6849064 0.0056684863     89.43281    11036.553 
   16500    104.44357   0.33306654   0.74048938 0.0076175022        0.125    8.8256238 0.0055808042    88.908334    11035.592 
   16600    104.99785   0.33311624   0.74366825 0.0076175022        0.125    8.9641937 0.0054970327    90.010696    11033.813 
   16700    105.54391   0.33371591   0.74602716 0.0076175022        0.125    9.1007107 0.0054168908    88.049168    11033.499 
   16800    106.08212   0.33300483   0.74900689 0.0076175022        0.125    9.2352626 0.0053401254    89.165422    11032.343 
   16900     106.6128   0.33344796   0.75129485 0.0076175022        0.125    9.3679313 0.0052665068    88.684178    11031.541 
   17000    107.13624   0.33328236   0.75413877 0.0076175022        0.125    9.4987929 0.0051958269    87.654322    11031.502 
   17100    107.65273   0.33388175   0.75722075 0.0076175022        0.125    9.6348055 0.0051241117    88.962739    11030.486 
   17200    108.16145   0.33419764   0.76074331 0.0076175022        0.125    9.7053869 0.0050815725    90.017109    11028.715 
   17300    108.66671   0.33276676   0.76385809 0.0076175022        0.125    9.8369882 0.0050136795    88.859662    11027.775 
   17400    109.21183   0.33373789   0.76716972 0.0076175022        0.125    8.5755938 0.0056432531      90.3424    11025.789 
   17500     109.7726      0.33319   0.77038036 0.0076175022        0.125    8.6070788  0.005565568     88.74642    11024.931 
   17600    110.32567   0.33363249   0.77305719 0.0076175022        0.125    8.7557143 0.0054894321    88.920341    11023.947 
   17700    110.87127   0.33334601   0.77611239 0.0076175022        0.125    8.3345548 0.0054125312    89.892422    11022.286 
   17800    111.40915   0.33307598   0.77910882 0.0076175022        0.125    8.4135897 0.0053526042    90.364686    11020.311 
   17900    111.94613   0.33383888   0.78203812 0.0076175022        0.125    8.5465385 0.0054921081    90.109802    11018.517 
   18000    112.49586    0.3341555    0.7853332 0.0076175022        0.125     8.689012 0.0054002441    91.915667    11015.541 
   18100    113.02899   0.33332356   0.78811953 0.0076175022        0.125    8.8223291 0.0053064359    89.800618    11013.976 
   18200    113.55826   0.33370869   0.79105312 0.0076175022        0.125    8.9714514 0.0052772567    90.053908    11012.248 
   18300     114.0864   0.33258897   0.79382243 0.0076175022        0.125    9.0307281 0.0054185006    90.486764    11010.241 
   18400    114.62079   0.33283562   0.79671979 0.0076175022        0.125    8.4978771 0.0053681278    91.062813     11007.87 
   18500     115.1571   0.33207719   0.79890981 0.0076175022        0.125    8.7037384 0.0053421486    90.012087    11006.194 
   18600    115.68941   0.33305168   0.80167791 0.0076175022        0.125    8.1139906 0.0052975892    89.785393    11004.672 
   18700    116.21714   0.33286174   0.80444295 0.0076175022        0.125    8.2594314 0.0052541853     89.01398    11003.661 
   18800    116.74095   0.33314019   0.80706854 0.0076175022        0.125    8.4755113 0.0052153552    89.569058    11002.285 
   18900     117.2638    0.3327802   0.80977807 0.0076175022        0.125     8.515591 0.0052035052    89.327748    11001.068 
   19000     117.7859   0.33322651   0.81322762 0.0076175022        0.125    8.4183601 0.0052440813    89.845881    10999.519 
   19100    118.30516   0.33299874   0.81628145 0.0076175022        0.125     8.364187 0.0052041524    88.356308    10998.938 
   19200    118.82172    0.3337215   0.81935446 0.0076175022        0.125    8.6146381 0.0051034323    88.624214    10998.177 
   19300    119.32931    0.3335353   0.82180728 0.0076175022        0.125    8.5874464 0.0051668554    89.417195    10996.904 
   19400    119.84327   0.33476631   0.82403245 0.0076175022        0.125     8.686959 0.0051065431    89.574681    10995.532 
   19500    120.35139   0.33406102   0.82671445 0.0076175022        0.125    8.8307021 0.0050501265    89.518857    10994.199 
   19600    120.85391   0.33338145    0.8299161 0.0076175022        0.125    8.8239042 0.0049949788    89.220313    10993.054 
   19700    121.35043    0.3332469    0.8334337 0.0076175022        0.125    8.8975234 0.0048963633    89.839357    10991.526 
   19800    121.85711   0.33394048   0.83628899 0.0076175022        0.125     8.436459 0.0051238876    89.065185     10990.48 
   19900    122.36131   0.33269898    0.8390147 0.0076175022        0.125    8.5153719 0.0047609608     89.72159    10989.029 
   20000    122.84027   0.33285117   0.84122993 0.0076175022        0.125    8.6249169 0.0047943867    90.418451    10987.161 
   20100    123.32569   0.33358018   0.84384616 0.0076175022        0.125    9.0693559 0.0049631901    88.446095    10986.503 
   20200    123.81965   0.33350813   0.84641391 0.0076175022        0.125    9.1984465 0.0049110087    89.692791    10985.078 
   20300    124.30847   0.33298387    0.8498617 0.0076175022        0.125    9.3174855 0.0048637827    88.915119    10984.126 
   20400    124.80234   0.33253909   0.85255179 0.0076175022        0.125    9.4409534 0.0052805879    89.871889    10982.598 
   20500    125.32735   0.33375289   0.85469302 0.0076175022        0.125    9.5528265 0.0052173617    89.596667    10981.237 
   20600    125.84585   0.33369461   0.85794106 0.0076175022        0.125    9.6990064 0.0051381845     88.53999    10980.512 
   20700     126.3453   0.33343109    0.8607252 0.0076175022        0.125    9.3909184  0.004692724    90.144274    10978.832 
   20800    126.81225   0.33169058   0.86373127 0.0076175022        0.125    9.5052588 0.0046267882    88.705484    10978.004 
   20900    127.28782   0.33271321   0.86622918 0.0076175022        0.125    8.9340777 0.0047907454    91.726454    10975.434 
   21000    127.76551    0.3328735    0.8688873 0.0076175022        0.125    8.2489312 0.0047593398    87.891912    10975.096 
   21100    128.24001   0.33270714   0.87152146 0.0076175022        0.125     8.297487 0.0047275221    88.934896    10974.131 
   21200    128.71134   0.33251563   0.87385516 0.0076175022        0.125    8.4768859 0.0046959634    89.244612    10972.985 
   21300    129.17953   0.33255553   0.87604274 0.0076175022        0.125    8.5819655 0.0046646745    88.989334    10971.986 
   21400     129.6439   0.33250314   0.87878694 0.0076175022        0.125    8.7063792 0.0052302903    89.691909    10970.584 
   21500    130.17921   0.33364851   0.88152029 0.0076175022        0.125    8.8290749  0.005554337     89.80231    10969.122 
   21600    130.73093    0.3325267    0.8848887 0.0076175022        0.125    8.9230362 0.0054746703    89.465602    10967.853 
   21700    131.27205   0.33316366   0.88813968 0.0076175022        0.125    8.9860759 0.0053371116    89.962122    10966.307 
   21800    131.80279   0.33257702    0.8914177 0.0076175022        0.125     9.121935 0.0052694055    88.919945     10965.35 
   21900     132.3266     0.333742   0.89457759 0.0076175022        0.125     9.252888 0.0052003727    89.133323    10964.271 
   22000     132.8431   0.33263972   0.89685059 0.0076175022        0.125    9.3942582 0.0051260356    88.508806    10963.544 
   22100     133.3756    0.3329899   0.89984947 0.0076175022        0.125    8.9534918 0.0053503025    89.776841    10962.107 
   22200    133.90765   0.33318264    0.9026783 0.0076175022        0.125    9.0865039 0.0052845049    89.335796    10960.915 
   22300    134.43322    0.3320962   0.90573628 0.0076175022        0.125    9.2178949 0.0052207381     89.07782    10959.865 
   22400     134.9525   0.33338606   0.90881273 0.0076175022        0.125    9.3477148 0.0051590166    89.472492    10958.599 
   22500    135.46569   0.33284003   0.91239509 0.0076175022        0.125    9.4760139 0.0050992415    88.969947    10957.609 
   22600    135.97271   0.33238759   0.91545232 0.0076175022        0.125    9.6050966 0.0050330082    89.256064    10956.462 
   22700    136.47588   0.33170651   0.91854688 0.0076175022        0.125    9.6631589 0.0050122554    89.601892    10955.128 
   22800    136.97385   0.33339623   0.92129874 0.0076175022        0.125    10.330409 0.0047531549     88.64375    10954.314 
   22900    137.45632   0.33153842   0.92468849 0.0076175022        0.125    10.102719 0.0048510276    90.725985    10952.392 
   23000    137.93894   0.33325272   0.92743503 0.0076175022        0.125    10.185585 0.0048036121     87.51525    10952.195 
   23100    138.41688   0.33398756   0.93034721 0.0076175022        0.125    10.305031 0.0047502391    89.351135    10950.997 
   23200    138.88957   0.33326232   0.93255569 0.0076175022        0.125    10.423202 0.0046985829    89.134422    10949.914 
   23300    139.35716   0.33250679   0.93542324 0.0076175022        0.125    10.540101  0.004648554    89.025561    10948.888 
   23400    139.81981   0.33303548   0.93802009 0.0076175022        0.125    10.656282 0.0046000796    89.702421    10947.508 
   23500    140.27751   0.33244337   0.94105453 0.0076175022        0.125    10.733957  0.004559965     89.23641    10946.372 
   23600    140.73193   0.33269836   0.94332402 0.0076175022        0.125    10.834047 0.0045188492    89.532883    10945.083 
   23700     141.1816   0.33300679   0.94538585 0.0076175022        0.125    10.953235 0.0044719869    89.787796    10943.664 
   23800    141.62679   0.33299167   0.94743605 0.0076175022        0.125    11.068821 0.0044254102    89.475049    10942.408 
   23900    142.06727   0.33283831    0.9495291 0.0076175022        0.125    11.163474 0.0043702787    89.101323    10941.344 
   24000    142.50341    0.3335208   0.95198392 0.0076175022        0.125    11.123625 0.0043683477    89.548749    10940.052 
   24100    142.93998   0.33260915   0.95489998 0.0076175022        0.125    11.220417 0.0043529227    90.776566    10938.149 
   24200    143.37344   0.33330061    0.9575544 0.0076175022        0.125    11.338803 0.0043112828    88.143925     10937.58 
   24300    143.80297   0.33333618   0.96033801 0.0076175022        0.125     11.44241 0.0042742742    89.048318    10936.543 
   24400    144.22869   0.33208938   0.96288225 0.0076175022        0.125    11.548841  0.004236563    89.683758    10935.188 
   24500    144.65123    0.3328989   0.96539643 0.0076175022        0.125    11.640938 0.0042377784    89.945203    10933.706 
   24600    145.07334   0.33215274   0.96739054 0.0076175022        0.125    11.746048 0.0042008195    88.363903    10933.015 
   24700     145.4918   0.33213663   0.96941603 0.0076175022        0.125    11.849512 0.0041650273    89.198018    10931.903 
   24800    145.90904   0.33288528   0.97144771 0.0076175022        0.125    11.913861 0.0041686054    89.882154    10930.456 
   24900     146.3269   0.33260412   0.97357378 0.0076175022        0.125    11.934266 0.0041622855    89.554542     10929.17 
   25000    146.74147   0.33275897   0.97557292 0.0076175022        0.125    12.041023 0.0041263778     88.57372    10928.368 
   25100    147.15255   0.33256623   0.97803432 0.0076175022        0.125    12.143525 0.0040920749    88.628034    10927.537 
   25200     147.5602   0.33303842   0.98008842 0.0076175022        0.125    12.247336 0.0040577685    88.804048    10926.617 
   25300    147.96449   0.33393297   0.98193894 0.0076175022        0.125    12.350815 0.0040240943    88.311046    10925.937 
   25400    148.37768    0.3330838   0.98479434 0.0076175022        0.125    11.253928  0.004220341      89.2321    10924.805 
   25500    148.80016   0.33272584   0.98748695 0.0076175022        0.125    11.620223 0.0041967974    90.704265    10922.979 
   25600     149.2186   0.33253254   0.99025821 0.0076175022        0.125      11.7282 0.0041670617    89.269134    10921.832 
   25700    149.63372    0.3334243   0.99298803 0.0076175022        0.125     11.83269 0.0041321737    88.867005    10920.878 
   25800     150.0454   0.33350629   0.99552353 0.0076175022        0.125    11.935609 0.0040980811    88.699031    10920.003 
   25900     150.4537   0.33314912    0.9974673 0.0076175022        0.125    12.034846 0.0040652074    89.217048     10918.88 
   26000    150.85874   0.33362896   0.99999894 0.0076175022        0.125    12.137738 0.0040325146    89.396022    10917.673 
   26100    151.26056     0.333752    1.0024221 0.0076175022        0.125     12.23748  0.004000713     88.65932    10916.813 
   26200    151.65916   0.33233283    1.0052223 0.0076175022        0.125    12.337427 0.0039643347     88.98635    10915.797 
   26300    152.05397   0.33208852    1.0076477 0.0076175022        0.125    12.457626 0.0039347209    90.457706    10914.104 
   26400      152.446   0.33267491    1.0099522 0.0076175022        0.125    12.560243 0.0039040599     88.87529    10913.141 
   26500    152.83508   0.33292994    1.0124332 0.0076175022        0.125    12.658898 0.0038743732    89.368307    10911.949 
   26600    153.22131   0.33241726    1.0150555 0.0076175022        0.125    12.751541 0.0038469879    88.447513    10911.184 
   26700    153.60476   0.33309895    1.0173672 0.0076175022        0.125    12.847404 0.0038193462    88.906035    10910.203 
   26800    153.98548   0.33218599    1.0199725 0.0076175022        0.125    12.942582 0.0037922848    88.949155    10909.201 
   26900    154.36351   0.33324994    1.0221831 0.0076175022        0.125     13.03709 0.0037657837    89.117017    10908.122 
   27000     154.7389   0.33335183    1.0247561 0.0076175022        0.125    13.135524 0.0037379727    88.325961    10907.405 
   27100    155.11122   0.33217308    1.0274526 0.0076175022        0.125    13.200266 0.0037118802    88.480781    10906.614 
   27200    155.48128   0.33424112    1.0297597 0.0076175022        0.125    13.292783 0.0036870608    89.169308    10905.508 
   27300    155.84889   0.33258885    1.0324204 0.0076175022        0.125    13.384685 0.0036627262    89.570741    10904.222 
   27400    156.21408   0.33336339    1.0346232 0.0076175022        0.125    13.475983  0.003638861    89.736966    10902.865 
   27500    156.57691   0.33372278    1.0369925 0.0076175022        0.125    13.566811 0.0036152234    89.391068    10901.662 
   27600    156.94136   0.33375721    1.0392987 0.0076175022        0.125    12.019167 0.0036889964    88.533654    10900.841 
   27700    157.30995   0.33391722    1.0415253 0.0076175022        0.125    12.109993 0.0036748969    89.570014    10899.559 
   27800    157.67509   0.33379088    1.0441845 0.0076175022        0.125     12.10782 0.0036385782    90.259152    10897.981 
   27900    158.03808    0.3338113    1.0467186 0.0076175022        0.125    12.184906 0.0036198994    89.497464    10896.734 
   28000    158.39908   0.33308792    1.0493583 0.0076175022        0.125    12.287165 0.0035986326    88.118315    10896.095 
   28100    158.79769   0.33322051    1.0517675 0.0076175022        0.125    9.6425964 0.0045413256    89.882617    10894.682 
   28200    159.25076   0.33349008     1.054451 0.0076175022        0.125    9.7822164 0.0044862447    88.796942    10893.741 
   28300    159.75047   0.33403156    1.0572668 0.0076175022        0.125    9.8781289 0.0050552125    89.348413    10892.559 
   28400    160.25311   0.33389892    1.0602536 0.0076175022        0.125    10.005887 0.0049907281    89.323753    10891.388 
   28500    160.74943   0.33304651    1.0639377 0.0076175022        0.125    10.129803 0.0049297963    88.905733    10890.397 
   28600     161.2397   0.33333561    1.0669821 0.0076175022        0.125    10.252178 0.0048705816    88.644705    10889.517 
   28700    161.72439   0.33291054    1.0697957 0.0076175022        0.125    10.367599 0.0048162728    89.658184    10888.205 
   28800    162.20353   0.33315862    1.0721266 0.0076175022        0.125    10.487385 0.0047614063    88.851135    10887.235 
   28900    162.67727   0.33412246    1.0749452 0.0076175022        0.125     10.60582 0.0047083723    89.097424     10886.16 
   29000    163.14579   0.33333936    1.0777635 0.0076175022        0.125    10.720453 0.0046581499    88.420532    10885.372 
   29100    163.60936   0.33483091    1.0800634 0.0076175022        0.125    10.836344 0.0046084549    88.316048    10884.626 
   29200    164.06803   0.33386332    1.0825309 0.0076175022        0.125    10.951011 0.0045603166    89.316106    10883.456 
   29300    164.52201    0.3335328    1.0853245 0.0076175022        0.125    11.061188  0.004514885    90.089034    10881.968 
   29400    164.97144   0.33434438    1.0879438 0.0076175022        0.125    11.175001 0.0044687914    89.410409    10880.761 
   29500    165.41633   0.33201851    1.0904442 0.0076175022        0.125    11.283862 0.0044251175    88.714378    10879.843 
   29600    165.85682   0.33375021    1.0929632 0.0076175022        0.125    11.389643 0.0043825659      88.9751    10878.816 
   29700    166.29291   0.33366206    1.0950743 0.0076175022        0.125    11.532653 0.0043256546    88.196248    10878.112 
   29800    166.72647   0.33396381    1.0977332 0.0076175022        0.125    11.514571 0.0043256781    88.450497    10877.299 
   29900    167.16671   0.33422248    1.1002969 0.0076175022        0.125    9.7063556 0.0044518802    87.271154     10876.98 
   30000    167.61072   0.33396584    1.1028228 0.0076175022        0.125    9.8098652 0.0044200496    86.528987    10876.973 
   30100    168.05092   0.33449234    1.1054069 0.0076175022        0.125    9.9005014 0.0043808257    85.672191    10877.331 
   30200    168.53476   0.33351626    1.1078129 0.0076175022        0.125    8.7066687 0.0052875581    88.187774    10876.609 
   30300     169.0609   0.33366988    1.1105836 0.0076175022        0.125    8.8382687 0.0052295042    88.426628    10875.787 
   30400    169.57731   0.33406662    1.1129526 0.0076175022        0.125     9.319062 0.0051134672    88.799931    10874.811 
   30500    170.08623   0.33492219    1.1151455 0.0076175022        0.125    8.1635841 0.0050597725    89.105109    10873.711 
   30600    170.58963   0.33422678    1.1175867 0.0076175022        0.125    8.1712686 0.0049978913    89.979935    10872.266 
   30700    171.11049   0.33326257    1.1200911 0.0076175022        0.125    8.2886755 0.0056436592    89.654332     10870.95 
   30800     171.6765    0.3340617    1.1225253 0.0076175022        0.125    8.4908158 0.0056669571    92.446822    10868.576 
   30900    172.24323   0.33349902    1.1249873 0.0076175022        0.125    8.6899133 0.0056712927    91.294262    10866.638 
   31000    172.80917   0.33351536    1.1280921 0.0076175022        0.125    8.8174665 0.0056308822    88.808373    10865.663 
   31100    173.36914   0.33416878    1.1305753 0.0076175022        0.125    8.9429198 0.0055524675    88.477813    10864.819 
   31200    173.92038   0.33371268    1.1332911 0.0076175022        0.125    9.0732314 0.0054669142    88.542737    10863.948 
   31300    174.46116   0.33312445    1.1359269 0.0076175022        0.125    9.2736236 0.0053562475    88.962909    10862.909 
   31400    174.99386   0.33276201    1.1380751 0.0076175022        0.125    9.3342525 0.0053402925    89.885853    10861.514 
   31500    175.57074   0.33216983    1.1400098 0.0076175022        0.125    7.9799785 0.0059664159    90.717351    10859.808 
   31600    176.18862   0.33352159    1.1419586 0.0076175022        0.125    7.5438718 0.0063591546    90.159698    10858.314 
   31700     176.8174   0.33242908    1.1444878 0.0076175022        0.125     7.541416 0.0062703559    90.202084    10856.806 
   31800    177.43976   0.33233474    1.1468317 0.0076175022        0.125    7.6970049 0.0061777391    89.412087      10855.6 
   31900      178.054   0.33252496    1.1495932 0.0076175022        0.125    7.8505654  0.006093017    89.411515    10854.394 
   32000    178.65927   0.33266295    1.1525534 0.0076175022        0.125     8.001882 0.0060007199    88.307328    10853.611 
   32100     179.2549   0.33336585    1.1553624 0.0076175022        0.125    8.1507895 0.0059065954    87.579555    10853.111 
   32200    179.84128   0.33236784    1.1582353 0.0076175022        0.125    8.3651423  0.005817036    89.348737    10851.926 
   32300    180.41883   0.33358653    1.1601061 0.0076175022        0.125    8.4624209 0.0056895639    89.121865    10850.828 
   32400    180.99756   0.33339465    1.1627635 0.0076175022        0.125    8.6070377 0.0057899448    89.105601    10849.735 
   32500    181.57219   0.33241261    1.1658879 0.0076175022        0.125    8.7643663 0.0056849525    88.654692    10848.813 
   32600    182.16812   0.33205437    1.1682274 0.0076175022        0.125    7.4170084 0.0062044916    88.997887    10847.759 
   32700    182.78479   0.33378675    1.1709187 0.0076175022        0.125      7.06754 0.0061624808    89.710728    10846.442 
   32800    183.39633   0.33247489    1.1740158 0.0076175022        0.125    7.2204259  0.006078868    89.082096    10845.357 
   32900    184.00052   0.33222256    1.1769518 0.0076175022        0.125     7.371473 0.0059971259    88.167012    10844.615 
   33000    184.59545   0.33207172    1.1800198 0.0076175022        0.125    7.5202062 0.0059326585    88.161026    10843.873 
   33100    185.18154   0.33324449    1.1827311 0.0076175022        0.125    7.6674596 0.0056799257    87.912397    10843.222 
   33200    185.74502   0.33176386    1.1858667 0.0076175022        0.125    7.8071621  0.005594321    88.973439    10842.173 
   33300    186.30285   0.33335079    1.1890941 0.0076175022        0.125    7.9466206 0.0059301005    90.246762    10840.663 
   33400    186.91787   0.33247845    1.1924143 0.0076175022        0.125     8.100375 0.0061052332    89.570186    10839.398 
   33500    187.52241   0.33268178    1.1958584 0.0076175022        0.125    8.2550783  0.006056054    89.569937    10838.134 
   33600    188.12322   0.33241012    1.1993841 0.0076175022        0.125    8.4032232 0.0059492546    89.063615    10837.053 
   33700    188.71348   0.33299007    1.2027544 0.0076175022        0.125    8.5507888 0.0058466135     89.14666    10835.942 
   33800    189.29371   0.33322779    1.2051833 0.0076175022        0.125    8.6958647 0.0057491153    89.569612     10834.68 
   33900    189.86441   0.33270313    1.2082169 0.0076175022        0.125    8.8385394 0.0056563345    88.675516    10833.739 
   34000    190.42603   0.33296889    1.2111343 0.0076175022        0.125    8.9785871 0.0055681821    89.427204    10832.528 
   34100    190.97928   0.33403841    1.2139601 0.0076175022        0.125    9.1112141 0.0054871714    89.052118     10831.45 
   34200    191.52433   0.33268446    1.2170567 0.0076175022        0.125    9.2474765 0.0054063339    89.185766    10830.325 
   34300    192.06146    0.3325973    1.2201451 0.0076175022        0.125    9.3817576 0.0053289683     90.10926    10828.877 
   34400    192.59099   0.33274082    1.2231019 0.0076175022        0.125    9.5141414 0.0052548331     90.35505    10827.345 
   34500    193.11325   0.33294979    1.2261894 0.0076175022        0.125     9.644706 0.0051837094    89.448393    10826.131 
   34600    193.62853   0.33438089    1.2291771 0.0076175022        0.125    9.7735247 0.0051153986    89.525507    10824.889 
   34700    194.13709    0.3324101    1.2321636 0.0076175022        0.125    9.9006655 0.0050497202    90.034461    10823.473 
   34800     194.6392   0.33185107    1.2350591 0.0076175022        0.125    10.026192 0.0049865091    88.471524    10822.603 
   34900    195.13503   0.33309352    1.2374391 0.0076175022        0.125    10.160709   0.00492037    88.992052    10821.548 
   35000    195.62337   0.33279143    1.2396163 0.0076175022        0.125    10.318196 0.0048446335    88.692729    10820.598 
   35100    196.10746   0.33309585    1.2417616 0.0076175022        0.125    10.375327  0.004816581    89.202419     10819.47 
   35200    196.58663   0.33308021    1.2442008 0.0076175022        0.125     10.49512 0.0047616609    89.502505    10818.238 
   35300     197.0604   0.33276093     1.246371 0.0076175022        0.125    10.613561 0.0047085776    89.630231    10816.964 
   35400    197.52893    0.3340774    1.2488053 0.0076175022        0.125    10.731005 0.0046571215    89.134441     10815.86 
   35500     197.9924   0.33338952     1.251863 0.0076175022        0.125    10.851341 0.0046055131    88.724042    10814.896 
   35600    198.44884   0.33242463    1.2545877 0.0076175022        0.125    11.009786 0.0045357407    89.002741    10813.836 
   35700    198.90033   0.33329815    1.2570559 0.0076175022        0.125    11.126887  0.004488004    88.693686    10812.882 
   35800     199.3468   0.33256268    1.2596961 0.0076175022        0.125     10.91563 0.0044337481    89.419292     10811.68 
   35900    199.78822   0.33215197    1.2622913 0.0076175022        0.125    11.041082 0.0043868435    89.272478    10810.528 
   36000    200.22484   0.33301731    1.2645807 0.0076175022        0.125    11.194795 0.0043330255    88.482498    10809.644 
   36100    200.69082   0.33246288    1.2669092 0.0076175022        0.125     8.920517 0.0047750953    89.119649    10808.543 
   36200    201.16597   0.33280962    1.2697122 0.0076175022        0.125    9.0857404 0.0047005237    88.840784    10807.535 
   36300    201.68409   0.33331156    1.2726809 0.0076175022        0.125     8.461037 0.0052032624    89.606869    10806.271 
   36400    202.20165   0.33364905     1.275457 0.0076175022        0.125    8.5904275 0.0051421921    89.602926     10805.01 
   36500    202.71318   0.33366919    1.2785765 0.0076175022        0.125    8.7175076 0.0050827417    89.347062    10803.833 
   36600    203.22598   0.33346165    1.2816397 0.0076175022        0.125    8.8267827 0.0052092895     89.89248    10802.479 
   36700    203.74501   0.33280687    1.2848137 0.0076175022        0.125    8.1491479 0.0051615848    89.869059    10801.133 
   36800    204.25884   0.33363709     1.287546 0.0076175022        0.125    8.0156907 0.0051101176    88.831959    10800.128 
   36900    204.76758   0.33278517       1.2907 0.0076175022        0.125    8.1101441 0.0050598106    88.664587    10799.178 
   37000    205.27134   0.33327881    1.2937599 0.0076175022        0.125    7.7437218 0.0050106298    87.256774    10798.701 
   37100    205.78638   0.33439801    1.2964072 0.0076175022        0.125    8.2071846 0.0053637031    89.046957    10797.623 
   37200    206.32028   0.33375035    1.2998737 0.0076175022        0.125    8.3420296  0.005306267    88.578658    10796.697 
   37300    206.84864   0.33404725    1.3027678 0.0076175022        0.125    8.4714135 0.0052554247    89.182352    10795.574 
   37400    207.36985     0.333526    1.3052226 0.0076175022        0.125    8.6017173 0.0052115131    89.525526    10794.339 
   37500    207.88926   0.33352621    1.3081399 0.0076175022        0.125    8.7315704 0.0051686382    89.481616     10793.12 
   37600    208.40357   0.33294505    1.3108983 0.0076175022        0.125    8.9839197 0.0055091923    89.158826    10792.004 
   37700    208.93878   0.33251671    1.3133623 0.0076175022        0.125    8.9940246 0.0053436292     91.48854     10790.16 
   37800    209.47331   0.33162546    1.3164283 0.0076175022        0.125    9.1275656 0.0053436728     90.95953    10788.481 
   37900    210.00528   0.33251834    1.3183145 0.0076175022        0.125    9.2605585 0.0052807314    88.710513    10787.513 
   38000    210.53015   0.33235066    1.3212851 0.0076175022        0.125    9.3917762 0.0052100905    88.841668    10786.502 
   38100    211.04808   0.33306287    1.3237314 0.0076175022        0.125     9.521259 0.0051421728    88.679134    10785.542 
   38200    211.55934   0.33280696    1.3262241 0.0076175022        0.125    9.6490729 0.0050768092    89.302072    10784.384 
   38300    212.06387   0.33193989    1.3290797 0.0076175022        0.125    9.7801693 0.0050106699    89.130842    10783.279 
   38400    212.56218   0.33257175    1.3315148 0.0076175022        0.125    9.9065694  0.004948535    89.361662    10782.102 
   38500     213.0534   0.33275597    1.3344759 0.0076175022        0.125    10.008124 0.0048642273    88.290022    10781.265 
   38600    213.53838    0.3319674    1.3376686 0.0076175022        0.125     10.34916 0.0048181345    89.422647    10780.069 
   38700    214.02314   0.33352258    1.3403422 0.0076175022        0.125     10.02353  0.004876746    91.176736    10778.338 
   38800    214.50831   0.33372948    1.3432608 0.0076175022        0.125    10.125669  0.004822009    89.318008    10777.177 
   38900    214.98821   0.33344262    1.3459078 0.0076175022        0.125    10.238112 0.0047713587    88.085152    10776.403 
   39000      215.463   0.33234264    1.3487074 0.0076175022        0.125     10.35623 0.0047196822    86.924635        10776 
   39100    215.93268   0.33376932    1.3510625 0.0076175022        0.125    10.473649 0.0046690802    89.332047    10774.832 
   39200    216.39736   0.33178157    1.3532471 0.0076175022        0.125    10.589388 0.0046200643     88.93039    10773.787 
   39300    216.85722   0.33264998    1.3556619 0.0076175022        0.125    10.704587 0.0045723564    88.314654    10772.934 
   39400    217.31151   0.33276626    1.3583511 0.0076175022        0.125    10.786597 0.0045124226    89.222059    10771.799 
   39500    217.76095   0.33330255    1.3608139 0.0076175022        0.125    10.501825 0.0047277019    89.764276      10770.5 
   39600    218.24057   0.33399255    1.3638634 0.0076175022        0.125    7.8989004 0.0047687967    90.516817    10768.976 
   39700    218.71698   0.33430726    1.3663561 0.0076175022        0.125    7.9641413 0.0047576533    89.887721    10767.642 
   39800    219.19218   0.33265023    1.3691716 0.0076175022        0.125    7.9378382 0.0047456068    88.658383    10766.681 
   39900    219.66576   0.33318142    1.3716624 0.0076175022        0.125    8.2938922 0.0048529796    88.861074    10765.658 
   40000    220.18829   0.33210773    1.3748262 0.0076175022        0.125    8.4245238 0.0053788573    91.157376    10763.953 
   40100    220.72599   0.33297563    1.3773984 0.0076175022        0.125    8.5604862 0.0053778747    89.663417    10762.689 
   40200     221.2633   0.33369468    1.3802534 0.0076175022        0.125    8.6990549 0.0053665408    90.213143    10761.263 
   40300    221.79784   0.33430261    1.3830158 0.0076175022        0.125    8.6701427  0.005272709    89.319454    10760.104 
   40400    222.32867   0.33452072    1.3856281 0.0076175022        0.125    8.3370445 0.0053311524    89.791583    10758.804 
   40500    222.91053   0.33470588    1.3885554 0.0076175022        0.125    8.4897344 0.0058271465    89.024125    10757.733 
   40600    223.48935   0.33379632     1.392138 0.0076175022        0.125    8.6271196 0.0057361795    88.692279    10756.761 
   40700    224.05871   0.33258295     1.395504 0.0076175022        0.125     8.791799 0.0056382748    89.099392    10755.667 
   40800    224.61833   0.33341494    1.3992412 0.0076175022        0.125    8.9311923 0.0055445701    88.968758    10754.611 
   40900    225.16896   0.33291127    1.4024713 0.0076175022        0.125     9.099137 0.0054332828    89.526252    10753.391 
   41000    225.70975   0.33383941    1.4054728 0.0076175022        0.125    9.2140222 0.0053880778    88.836362    10752.375 
   41100    226.25126   0.33502579     1.408884 0.0076175022        0.125    8.6752043  0.005407387    89.293061    10751.223 
   41200    226.78916   0.33426885      1.41241 0.0076175022        0.125    8.8096788  0.005344179    89.696071    10749.955 
   41300    227.32031   0.33456531    1.4155881 0.0076175022        0.125    8.9525606 0.0052295723    88.612811    10749.003 
   41400    227.84364   0.33433896    1.4187465 0.0076175022        0.125    9.1242174 0.0052363524    90.301126    10747.563 
   41500    228.36463   0.33512638    1.4218364 0.0076175022        0.125    9.2517724 0.0051778613    88.685265    10746.589 
   41600    228.87985   0.33482089    1.4249003 0.0076175022        0.125    9.3804184 0.0051210079    89.000739    10745.523 
   41700    229.38919   0.33534479    1.4276762 0.0076175022        0.125     9.852885 0.0049840405    88.781736    10744.521 
   41800    229.88792   0.33466415    1.4304363 0.0076175022        0.125    9.4031822 0.0048899127    90.143848    10743.128 
   41900    230.39521   0.33420176     1.433198 0.0076175022        0.125    9.5336805 0.0051589941    89.907201    10741.803 
   42000     230.9081   0.33389001    1.4361631 0.0076175022        0.125    9.6620027 0.0050920615     87.59973    10741.147 
   42100    231.41441   0.33366647    1.4389842 0.0076175022        0.125    9.7562456 0.0050190426    89.851135    10739.838 
   42200    231.91209   0.33380345    1.4416475 0.0076175022        0.125    9.2402241 0.0052420313    88.331486    10738.964 
   42300    232.43387   0.33437424    1.4441858 0.0076175022        0.125    8.7911162 0.0052887635    89.038715    10737.886 
   42400     232.9583    0.3337522     1.446894 0.0076175022        0.125    8.9199725 0.0051840815    88.151465    10737.063 
   42500    233.46805   0.33415965    1.4494318 0.0076175022        0.125    9.7325333 0.0047905558    89.583271     10735.83 
   42600    233.94517   0.33439071    1.4524645 0.0076175022        0.125    9.5154335 0.0050737664    88.903981    10734.789 
   42700    234.47737   0.33365435    1.4558355 0.0076175022        0.125    8.8120883 0.0054327609    89.603558     10733.55 
   42800    235.01615   0.33421219     1.459286 0.0076175022        0.125    8.9467821 0.0053530715    89.779263    10732.264 
   42900    235.55006   0.33270966    1.4626666 0.0076175022        0.125     9.094869  0.005345629    89.927904    10730.937 
   43000    236.08278   0.33477077    1.4661417 0.0076175022        0.125    8.3250915 0.0053098419    88.962909     10729.88 
   43100    236.61214   0.33309132    1.4695817 0.0076175022        0.125    8.4518366 0.0052738678    87.292786      10729.3 
   43200    237.14943   0.33395364    1.4728078 0.0076175022        0.125     8.439479 0.0053614975    88.957286    10728.242 
   43300    237.69049   0.33281391    1.4759834 0.0076175022        0.125    8.0103085 0.0053917515    89.562478    10727.017 
   43400    238.22688   0.33393153    1.4788358 0.0076175022        0.125    8.1458387  0.005551906    89.387944     10725.84 
   43500    238.77857   0.33287566     1.482058 0.0076175022        0.125    8.2849391 0.0054788237    88.946929    10724.785 
   43600    239.32277   0.33321837    1.4849756 0.0076175022        0.125    7.8915806 0.0055458477    89.644617    10723.538 
   43700    239.87193   0.33337246    1.4869727 0.0076175022        0.125    8.0336759 0.0054727932    89.675954    10722.283 
   43800    240.41692   0.33365959    1.4895509 0.0076175022        0.125     8.178658 0.0054151504    89.056713    10721.197 
   43900    240.97009   0.33312416    1.4926594 0.0076175022        0.125     8.317899 0.0057711738    89.368707    10720.027 
   44000    241.54122   0.33249771    1.4956024 0.0076175022        0.125    8.1696699 0.0057637208    87.921907    10719.256 
   44100    242.11726   0.33402386    1.4979616 0.0076175022        0.125    8.2021268 0.0057166473    91.036545    10717.641 
   44200     242.6816   0.33356641    1.5008598 0.0076175022        0.125    8.6290886 0.0056302761    89.967448     10716.31 
   44300    243.24078   0.33306838    1.5031739 0.0076175022        0.125    8.7568554 0.0055435071    89.198037    10715.187 
   44400    243.79154   0.33304721    1.5059406 0.0076175022        0.125    8.8902859  0.005465531    88.741688    10714.188 
   44500    244.33474   0.33356437    1.5082691 0.0076175022        0.125    9.0352269 0.0053908897    88.947721    10713.132 
   44600    244.87062    0.3344681    1.5111079 0.0076175022        0.125    9.1669551 0.0053196839    88.193763    10712.282 
   44700    245.39873   0.33225241    1.5141998 0.0076175022        0.125    9.2989821 0.0052350811    87.865656    10711.522 
   44800    245.91932   0.33349188    1.5168328 0.0076175022        0.125    9.4363152 0.0051681427    88.943364    10710.465 
   44900    246.43574   0.33475489    1.5193181 0.0076175022        0.125    9.5311846 0.0051804884    89.749447    10709.194 
   45000    246.95074   0.33385321    1.5221519 0.0076175022        0.125    9.6599335 0.0051131209    87.127068    10708.634 
   45100    247.45911   0.33420839    1.5246848 0.0076175022        0.125    9.7870272 0.0050482957    88.771946    10707.622 
   45200    247.96111   0.33328571    1.5272329 0.0076175022        0.125    9.9125274 0.0049858575    89.657782    10706.375 
   45300    248.45697   0.33291613    1.5300936 0.0076175022        0.125    10.036492 0.0049256641    88.488453    10705.438 
   45400    248.94479   0.33308495    1.5326099 0.0076175022        0.125    10.242003 0.0048535883     89.93259    10704.119 
   45500    249.43781   0.33358359    1.5352795 0.0076175022        0.125    9.0545255  0.005288833    90.040279    10702.773 
   45600    249.96448   0.33370913    1.5380104 0.0076175022        0.125    9.1862207 0.0052348488    88.662788     10701.79 
   45700    250.48513   0.33257834    1.5403391 0.0076175022        0.125    9.3150269 0.0051691555     88.41975     10700.87 
   45800    250.99722     0.332896    1.5431395 0.0076175022        0.125    9.7956834 0.0050455548    89.698085    10699.614 
   45900    251.50816   0.33253402    1.5461088 0.0076175022        0.125    8.8460118 0.0050842937     89.00971    10698.537 
   46000     252.0255   0.33270882    1.5479876 0.0076175022        0.125    8.9660193  0.005201402    88.241616    10697.663 
   46100    252.54302   0.33278876    1.5502319 0.0076175022        0.125    8.4247531 0.0051425615    88.607551    10696.691 
   46200    253.05465   0.33325895    1.5521996 0.0076175022        0.125    8.5526602 0.0050844933     89.48427     10695.49 
   46300    253.55952    0.3326281      1.55513 0.0076175022        0.125    8.5881033 0.0050024175    89.634483    10694.251 
   46400    254.09905   0.33195642    1.5578707 0.0076175022        0.125    8.6188706 0.0054094917    90.659858    10692.754 
   46500    254.63738   0.33399785    1.5602109 0.0076175022        0.125    8.7353335 0.0053504603    88.863766    10691.715 
   46600    255.16939   0.33248427    1.5636667 0.0076175022        0.125    8.8664618 0.0052847334    89.083761    10690.618 
   46700    255.69541   0.33317811    1.5666819 0.0076175022        0.125    8.7128481  0.005229303    89.297604    10689.467 
   46800    256.22717   0.33375259    1.5694253 0.0076175022        0.125    8.5784494  0.005418218    89.962353    10688.148 
   46900    256.76487   0.33318042    1.5718471 0.0076175022        0.125    8.6792654 0.0053527601    89.438722    10686.961 
   47000    257.29371   0.33390485    1.5744795 0.0076175022        0.125     8.811476 0.0052913647    89.453849    10685.771 
   47100    257.82016   0.33315153    1.5772345 0.0076175022        0.125    8.9479909 0.0052280588     88.60684    10684.798 
   47200    258.34001   0.33101553    1.5804334 0.0076175022        0.125    9.0135664 0.0051629022    88.304892    10683.901 
   47300     258.8534   0.33181721     1.583148 0.0076175022        0.125    9.1443537 0.0050976161    88.324864    10682.999 
   47400    259.36017    0.3332134    1.5854901 0.0076175022        0.125    9.2724738 0.0050939015    89.478409    10681.802 
   47500     259.8652   0.33230037    1.5878555 0.0076175022        0.125    8.4995492 0.0056500808    89.676299    10680.556 
   47600    260.35883   0.33276761    1.5903067 0.0076175022        0.125    8.9478419 0.0048347519    90.733815    10679.051 
   47700    260.84012   0.33344774    1.5927434 0.0076175022        0.125    9.0681651 0.0047864875    88.530347    10678.095 
   47800    261.31664   0.33340922    1.5953484 0.0076175022        0.125     9.187296 0.0047394904    89.502448    10676.894 
   47900    261.78848   0.33331199    1.5981407 0.0076175022        0.125    9.3076127 0.0046931447    89.173043    10675.775 
   48000    262.25578   0.33470018    1.5997453 0.0076175022        0.125    9.4244372  0.004648546    87.478507    10675.087 
   48100    262.71867   0.33316671     1.601755 0.0076175022        0.125    9.5401595 0.0046050727    88.613523    10674.108 
   48200    263.17726   0.33333785    1.6039251 0.0076175022        0.125    9.6548073 0.0045626822    88.213443    10673.228 
   48300    263.63147   0.33308291    1.6063882 0.0076175022        0.125    9.7553171 0.0045261875     88.00145    10672.402 
   48400    264.09789   0.33218631    1.6086192 0.0076175022        0.125    9.2845265 0.0046298567    90.082204    10671.058 
   48500    264.62134   0.33338843    1.6111229 0.0076175022        0.125    9.0016352 0.0054559479    89.887009    10669.763 
   48600    265.16435   0.33195127    1.6138884 0.0076175022        0.125    9.1157184 0.0053893607    89.423601    10668.581 
   48700     265.6997   0.33366209    1.6167463 0.0076175022        0.125    9.2416812 0.0053140389    88.682828    10667.582 
   48800    266.22791   0.33335515    1.6195891 0.0076175022        0.125    9.3717064 0.0052426613    88.820748    10666.548 
   48900    266.74771   0.33265615    1.6222961 0.0076175022        0.125    9.5029314 0.0051504993     89.83039    10665.268 
   49000    267.26152   0.33168074    1.6249018 0.0076175022        0.125    8.4286742 0.0054281711    89.162238     10664.15 
   49100    267.80273   0.33319155    1.6282281 0.0076175022        0.125    8.3097661 0.0053791552    89.850404    10662.866 
   49200    268.33802   0.33350167      1.63101 0.0076175022        0.125    8.1265956 0.0053023493    89.740672    10661.609 
   49300    268.86802   0.33309399    1.6340276 0.0076175022        0.125    8.1137626 0.0053029646     91.76366    10659.879 
   49400    269.39838   0.33405733    1.6367075 0.0076175022        0.125    8.1047083 0.0054792853    89.645824    10658.647 
   49500     269.9422   0.33382304    1.6395038 0.0076175022        0.125    8.2290701 0.0053876594    90.443876    10657.226 
   49600     270.4817   0.33256059    1.6425946 0.0076175022        0.125     8.364162 0.0053607243    89.838068    10655.949 
   49700    271.01481   0.33389039    1.6458873 0.0076175022        0.125    8.5012077 0.0052961667    88.922169    10654.893 
   49800    271.54145   0.33422526    1.6485536 0.0076175022        0.125    8.6328672 0.0052303882    89.174711    10653.775 
   49900    272.05666   0.33203532    1.6518523 0.0076175022        0.125    8.7616686 0.0051674269    89.204316     10652.65 
   50000    272.57054   0.33168292    1.6544352 0.0076175022        0.125    8.8622405 0.0051093123    88.042902    10651.806 
   50100    273.07963   0.33273041    1.6571157 0.0076175022        0.125    8.9604403 0.0050609469    88.081267    10650.952 
   50200     273.5831   0.33330833    1.6600473 0.0076175022        0.125     9.086309 0.0050030645     88.55601    10649.981 
   50300    274.08114   0.33398102    1.6628885 0.0076175022        0.125    8.6283727 0.0048916108     89.80231    10648.714 
   50400    274.59308   0.33433827    1.6658875 0.0076175022        0.125      8.09079  0.005085412    90.944816    10647.184 
   50500    275.09967   0.33451052    1.6685099 0.0076175022        0.125    8.2174382 0.0050422246    88.616256    10646.198 
   50600    275.59924   0.33380804    1.6718541 0.0076175022        0.125    8.3086778 0.0049426751     88.19011    10645.315 
   50700    276.09291    0.3336622    1.6749347 0.0076175022        0.125    8.4102612 0.0049167037    89.247707    10644.179 
   50800    276.58282   0.33317497    1.6778026 0.0076175022        0.125    8.5539841 0.0048777805     88.79087     10643.15 
   50900    277.06883   0.33405673    1.6809133 0.0076175022        0.125    8.6776513  0.004835662    89.814175    10641.883 
   51000    277.57425    0.3342265    1.6835869 0.0076175022        0.125     8.804006 0.0054430898    88.799931    10640.852 
   51100    278.11688   0.33399089     1.686733 0.0076175022        0.125    8.9396636 0.0054333836    88.764149    10639.829 
   51200     278.6569   0.33429195    1.6902325 0.0076175022        0.125    9.2326521  0.005355922    90.055436    10638.507 
   51300    279.18974   0.33384046    1.6941378 0.0076175022        0.125    9.3565387 0.0053434084    90.415021    10637.103 
   51400    279.72069   0.33436282    1.6971694 0.0076175022        0.125    9.4892766  0.005268676    88.846636    10636.062 
   51500    280.24431   0.33456413     1.700057 0.0076175022        0.125    9.6229025 0.0051953915    89.963569    10634.762 
   51600     280.7663   0.33500557    1.7029892 0.0076175022        0.125    9.2029589 0.0051931291    89.929023    10633.471 
   51700    281.28263   0.33371327    1.7065374 0.0076175022        0.125    9.3320425 0.0051273823     89.21276    10632.345 
   51800     281.7925   0.33343392    1.7092706 0.0076175022        0.125    9.4594048 0.0050638727    88.960456    10631.277 
   51900    282.29526   0.33431008    1.7121823 0.0076175022        0.125    9.3714126 0.0050830206    88.762797    10630.254 
   52000    282.85323    0.3339525    1.7156566 0.0076175022        0.125    8.8355848 0.0055924265    87.691689    10629.482 
   52100     283.4087   0.33406765    1.7188818 0.0076175022        0.125    8.9744512  0.005502598    88.942176    10628.416 
   52200    283.95392   0.33512241    1.7216094 0.0076175022        0.125    9.1149505 0.0053720509    89.805944    10627.155 
   52300    284.49412   0.33429528     1.725338 0.0076175022        0.125    9.2496208 0.0053751819    89.638506    10625.931 
   52400    285.02814   0.33482092     1.728189 0.0076175022        0.125    9.3784485 0.0053007527    89.380915    10624.766 
   52500    285.55494   0.33373219    1.7312411 0.0076175022        0.125    9.5096982 0.0052283725    90.092614    10623.441 
   52600     286.0746   0.33303365    1.7340667 0.0076175022        0.125     9.641929 0.0051576951    89.445207    10622.262 
   52700    286.58734   0.33396607    1.7365759 0.0076175022        0.125    9.7707455 0.0050908532    89.623949    10621.044 
   52800     287.0935    0.3341999     1.739597 0.0076175022        0.125    9.8972869 0.0050264229     90.12411    10619.714 
[...]
  985300    4900.7952   0.33278074    24.686806 0.0076175022        0.125    9.6194249 0.0050447221    95.466664    163.21383 
  985400     4901.297   0.33195218     24.68968 0.0076175022        0.125    9.7448776  0.004985939    95.956024    162.10252 
  985500    4901.7931   0.33449368     24.69213 0.0076175022        0.125     9.867513 0.0049296612    96.153762     160.9912 
  985600    4902.2835   0.33350216    24.695253 0.0076175022        0.125    9.9827505 0.0048738903    95.359615    159.88001 
  985700    4902.7679   0.33440683    24.697485 0.0076175022        0.125    10.104071 0.0048122868    96.043386    158.76873 
  985800    4903.2467   0.33364028    24.699912 0.0076175022        0.125    10.236048 0.0047607658    94.503852    157.65771 
  985900    4903.7205   0.33397283    24.701695 0.0076175022        0.125    9.9950706 0.0047036163     96.24398    156.54643 
  986000    4904.1882    0.3338873    24.704003 0.0076175022        0.125    10.064803 0.0046144794    95.253607    155.43531 
  986100    4904.6586    0.3336993    24.706312 0.0076175022        0.125    10.245969 0.0047091022    95.090843    154.32423 
  986200    4905.1279   0.33380174    24.708717 0.0076175022        0.125      10.4526 0.0046913837    96.551003    153.21294 
  986300    4905.5951   0.33393008    24.711233 0.0076175022        0.125    10.560935 0.0046444905     96.58382    152.10166 
  986400    4906.0568   0.33349458    24.713274 0.0076175022        0.125    10.713561 0.0045719653    96.546447    150.99041 
  986500    4906.5163   0.33329785     24.71559 0.0076175022        0.125    10.624312 0.0046054325    98.700607    149.87885 
  986600    4906.9746   0.33295233    24.717961 0.0076175022        0.125    10.738237 0.0045591367    96.273914    148.76767 
  986700    4907.4285   0.33289302    24.720199 0.0076175022        0.125    10.860736  0.004513307    95.846124    147.65656 
  986800    4907.8816   0.33292611    24.722169 0.0076175022        0.125    10.953857 0.0045395492    95.642145     146.5455 
  986900    4908.3331   0.33200137    24.724971 0.0076175022        0.125    11.045547  0.004490816    91.491234    145.43508 
  987000    4908.7797   0.33394235    24.727469 0.0076175022        0.125    11.128981 0.0044372921    92.053307    144.32457 
  987100    4909.2361   0.33322943    24.729631 0.0076175022        0.125      9.41618 0.0046011208    93.869831    143.21379 
  987200     4909.695   0.33396615    24.731829 0.0076175022        0.125    9.5309091 0.0045751706    91.881538    142.10333 
  987300    4910.1515   0.33355271    24.734108 0.0076175022        0.125    9.6433026 0.0045514652    92.775042    140.99273 
  987400    4910.6056   0.33286736    24.735651 0.0076175022        0.125    9.7568218 0.0045276968    92.448269    139.88219 
  987500    4911.0573   0.33224316    24.737811 0.0076175022        0.125     9.869747 0.0045039511    94.336784    138.77138 
  987600    4911.5189   0.33413382    24.739991 0.0076175022        0.125    9.9851607 0.0049049535    95.998499    137.66035 
  987700    4912.0058   0.33445804    24.742576 0.0076175022        0.125    10.222343 0.0047927801    95.947836    136.54934 
  987800    4912.4865   0.33318826    24.745295 0.0076175022        0.125     10.13483 0.0048159247    95.646005    135.43838 
  987900    4912.9677   0.33275466    24.747786 0.0076175022        0.125    10.184552 0.0047877898    97.089157    134.32725 
  988000    4913.4441    0.3329907    24.750279 0.0076175022        0.125    10.307051 0.0047334077    94.106138    133.21653 
  988100    4913.9151   0.33296761    24.752796 0.0076175022        0.125    10.423894 0.0046822836     95.24117    132.10567 
  988200    4914.3811   0.33239528    24.755017 0.0076175022        0.125    10.540567 0.0046328604    94.768498    130.99488 
  988300    4914.8422   0.33391401     24.75712 0.0076175022        0.125    10.655616 0.0045851654    95.399828    129.88402 
  988400    4915.2981   0.33324282    24.759339 0.0076175022        0.125     10.77837 0.0045173218     96.06193    128.77309 
  988500    4915.7626   0.33304949    24.761983 0.0076175022        0.125    9.4667316 0.0048691225    96.792308    127.66208 
  988600    4916.2472   0.33488611    24.764414 0.0076175022        0.125    9.5867745 0.0048177843    82.411022    126.55317 
  988700    4916.7254    0.3332623     24.76762 0.0076175022        0.125    9.7036115 0.0047510818    80.952319    125.44448 
  988800    4917.1982   0.33367709    24.769522 0.0076175022        0.125    9.8280259 0.0046966564    83.903733    124.33528 
  988900    4917.6646   0.33376511    24.771604 0.0076175022        0.125    9.9739412 0.0046300928    94.566688    123.22455 
  989000    4918.1305   0.33367827    24.773713 0.0076175022        0.125    9.3678804  0.004683075    96.028082    122.11365 
  989100     4918.598   0.33316819     24.77615 0.0076175022        0.125    9.4854834 0.0046530393    95.339067    121.00286 
  989200    4919.0614   0.33338005    24.778884 0.0076175022        0.125    9.5953635 0.0046101031    95.938618      119.892 
  989300    4919.5205   0.33410418    24.781357 0.0076175022        0.125    9.7066289 0.0045682069     94.77201    118.78129 
  989400    4919.9754   0.33343864    24.783228 0.0076175022        0.125    9.8203657  0.004528754    95.808466    117.67048 
  989500    4920.4262   0.33266916    24.785965 0.0076175022        0.125    9.9349171 0.0044789321    95.936687    116.55966 
  989600    4920.8725   0.33355209    24.788041 0.0076175022        0.125    10.043789 0.0044408964    94.656557      115.449 
  989700    4921.3334   0.33321121     24.79065 0.0076175022        0.125     10.15901 0.0048817468    96.325939    114.33817 
  989800     4921.819   0.33284683    24.792925 0.0076175022        0.125    10.280411 0.0048250151    95.561541    113.22743 
  989900     4922.299   0.33342718    24.795044 0.0076175022        0.125    10.396885 0.0047711733    95.879953    112.11667 
  990000    4922.7737   0.33153234     24.79722 0.0076175022        0.125    10.523841 0.0047131664    95.437143    111.00598 
  990100    4923.2443   0.33217433    24.799448 0.0076175022        0.125     10.55565 0.0046918974    95.011144    109.89534 
  990200    4923.7112   0.33216377    24.801695 0.0076175022        0.125    10.693167 0.0046327579    95.572428    108.78466 
  990300    4924.1709   0.33260331    24.803889 0.0076175022        0.125    10.755178 0.0046028243    96.635713    107.67388 
  990400    4924.6294   0.33297969    24.805622 0.0076175022        0.125    10.841977 0.0045635596      94.3796    106.56335 
  990500    4925.0837   0.33301173    24.807872 0.0076175022        0.125    10.954039 0.0045175668    96.041649    105.45265 
  990600    4925.5334   0.33367098    24.809577 0.0076175022        0.125    11.066277 0.0044726274    95.862575    104.34199 
  990700    4925.9782    0.3333991    24.811744 0.0076175022        0.125     11.20812  0.004413623    95.232369     103.2314 
  990800    4926.4177   0.33347507    24.814032 0.0076175022        0.125    11.315649 0.0043724931    95.237559    102.12083 
  990900    4926.8533   0.33363493    24.816214 0.0076175022        0.125     10.68191 0.0043664636    94.681365    101.01033 
  991000    4927.2891   0.33359217    24.817637 0.0076175022        0.125    10.773777 0.0043378497    94.567221    99.899848 
  991100    4927.7195   0.33306066     24.81967 0.0076175022        0.125    10.855515 0.0042910599    96.219892    98.789215 
  991200    4928.1659   0.33421674    24.821379 0.0076175022        0.125    9.9480962 0.0048160014    96.747633    97.678545 
  991300    4928.6469   0.33377031    24.823762 0.0076175022        0.125    10.066333  0.004803597    95.210362    96.568038 
  991400    4929.1263   0.33319186    24.826296 0.0076175022        0.125    10.186332 0.0047698597    95.603297    95.457506 
  991500    4929.6002   0.33328011    24.828491 0.0076175022        0.125    10.297505 0.0047503645    96.532826      94.3469 
  991600    4930.0725   0.33324704    24.830723 0.0076175022        0.125    10.416164 0.0046798263    94.707726    93.236478 
  991700    4930.5539   0.33264252    24.833735 0.0076175022        0.125     8.819129 0.0049394447    97.061477    92.125853 
  991800    4931.0458   0.33350004    24.836433 0.0076175022        0.125      8.93882 0.0048927887    95.484898    91.015385 
  991900     4931.533   0.33236277    24.838656 0.0076175022        0.125    9.1388802 0.0048453342    94.867656    89.904985 
  992000    4932.0154   0.33255436    24.840805 0.0076175022        0.125    9.1812135 0.0047990259    95.021906    88.794583 
  992100    4932.4933   0.33384507    24.843211 0.0076175022        0.125    8.7390656  0.004754073    93.405294    87.684338 
  992200    4932.9667   0.33260697    24.845088 0.0076175022        0.125    8.8583767   0.00470861    95.642799    86.573903 
  992300    4933.4353   0.33339424     24.84661 0.0076175022        0.125     8.947253 0.0046583614    95.703315    85.463477 
  992400    4933.9512   0.33360209    24.848446 0.0076175022        0.125    9.0986423 0.0054740262    97.357224    84.352928 
  992500    4934.4983   0.33304182    24.851327 0.0076175022        0.125    8.2814095 0.0054413919    95.591618    83.242539 
  992600    4935.0407   0.33184279    24.853166 0.0076175022        0.125    8.4170131 0.0054422936    97.211299    82.132033 
  992700    4935.5846    0.3330236    24.855084 0.0076175022        0.125    8.5521531 0.0054127831     95.89225    81.021647 
  992800    4936.1227   0.33225727    24.857554 0.0076175022        0.125    8.5385715 0.0053318297    95.142051    79.911335 
  992900     4936.654   0.33260564    24.859747 0.0076175022        0.125    8.8091827 0.0054490893    96.380723    78.800938 
  993000    4937.1955   0.33236681    24.862336 0.0076175022        0.125    8.9442566  0.005373128     95.37371    77.690633 
  993100     4937.729   0.33252678    24.864496 0.0076175022        0.125    9.0579617 0.0052837595    95.516993     76.58033 
  993200    4938.2579   0.33185602    24.867415 0.0076175022        0.125     8.577497 0.0054486143    95.687922    75.470026 
  993300    4938.8035   0.33175237    24.870081 0.0076175022        0.125    9.1480241 0.0054252265    88.882409    74.360276 
  993400    4939.3423   0.33279832     24.87244 0.0076175022        0.125    8.5847056 0.0053657084    98.123208    73.249818 
  993500     4939.876   0.33420737    24.875372 0.0076175022        0.125    8.7175364 0.0053092018    95.263667    72.139579 
  993600    4940.4039   0.33453541    24.877482 0.0076175022        0.125    8.8495157 0.0052427667    95.014588     71.02937 
  993700    4940.9226   0.33295682    24.879622 0.0076175022        0.125    8.1493846 0.0051496481    95.424853    69.919143 
  993800     4941.435   0.33447874    24.881596 0.0076175022        0.125    8.2787307 0.0050936402    95.765722    68.808906 
  993900    4941.9419      0.33417     24.88375 0.0076175022        0.125    8.4043328 0.0050390255    94.787259    67.698749 
  994000    4942.4434   0.33325859    24.886159 0.0076175022        0.125    8.5297039 0.0049855591    93.301425    66.588704 
  994100    4942.9393   0.33273113    24.888546 0.0076175022        0.125    8.6914361 0.0048973611    96.076342    65.478483 
  994200    4943.4405   0.33322761     24.89097 0.0076175022        0.125    8.8131761  0.004982461     97.13651    64.368209 
  994300    4943.9523   0.33332067    24.893108 0.0076175022        0.125    8.7162999 0.0056396059    96.714059    63.257978 
  994400    4944.5175   0.33365244    24.895436 0.0076175022        0.125    8.2260361 0.0056620364    95.974621    62.147807 
  994500    4945.0778   0.33421895    24.897741 0.0076175022        0.125    8.3667535 0.0055841048     95.69993    61.037666 
  994600    4945.6334   0.33355054    24.899713 0.0076175022        0.125    8.5397145 0.0055139337    95.935393    59.927524 
  994700    4946.1814   0.33371127    24.901724 0.0076175022        0.125    8.6828769 0.0054374691    95.665857    58.817412 
  994800    4946.7203   0.33349978    24.904308 0.0076175022        0.125    9.1214716 0.0052623466    95.294921    57.707334 
  994900    4947.2766   0.33203557    24.907067 0.0076175022        0.125    8.0624457 0.0056232414     97.86573    56.597126 
  995000    4947.8382   0.33335442    24.909842 0.0076175022        0.125    8.2555289 0.0056081053    94.121998    55.487141 
  995100    4948.3983   0.33296963    24.912591 0.0076175022        0.125    8.3695315 0.0055907447    94.086126    54.377167 
  995200    4948.9565   0.33336621    24.914385 0.0076175022        0.125    8.5114673 0.0055725428     95.62808     53.26712 
  995300    4949.5121   0.33266572    24.916774 0.0076175022        0.125    7.4657539 0.0058215134    97.138872     52.15701 
  995400    4950.0868   0.33181052    24.919318 0.0076175022        0.125    7.6218514 0.0056950888    97.319522    51.046906 
  995500    4950.6544   0.33340948    24.922077 0.0076175022        0.125    7.5182233 0.0056544423    96.163175    49.936875 
  995600    4951.2203   0.33258007     24.92467 0.0076175022        0.125     7.659704 0.0057565919    97.522358    48.826794 
  995700    4951.7937   0.33317063    24.927284 0.0076175022        0.125    7.8078227  0.005727448    96.163263    47.716793 
  995800    4952.3649   0.33360764    24.929974 0.0076175022        0.125    7.4580013  0.006495812    96.318794    46.606799 
  995900    4952.9568   0.33354625    24.932511 0.0076175022        0.125    6.9574583 0.0058542227    96.598389    45.496807 
  996000    4953.5412   0.33341588    24.934747 0.0076175022        0.125    7.1128387 0.0058298956    95.269856    44.386887 
  996100       4954.1   0.33380422    24.937377 0.0076175022        0.125    9.0320015 0.0054354623    96.300152    43.276936 
  996200      4954.64   0.33410181    24.939193 0.0076175022        0.125    9.1667405 0.0053583441    94.466072    42.167076 
  996300    4955.1725    0.3338333    24.940929 0.0076175022        0.125    9.2998595 0.0052842693    95.440704    41.057186 
  996400    4955.6977   0.33365796    24.943142 0.0076175022        0.125    9.4336237 0.0052117805    95.766094    39.947296 
  996500    4956.2158    0.3327918    24.945387 0.0076175022        0.125    9.5623264 0.0051446506    95.332067    38.837436 
  996600    4956.7273   0.33282282    24.948027 0.0076175022        0.125    9.6901977 0.0050788894    96.270379    37.727553 
  996700    4957.2325   0.33289992    24.950521 0.0076175022        0.125    9.7437559  0.005048361    96.949009     36.61766 
  996800    4957.7349   0.33313026    24.952592 0.0076175022        0.125    9.8618769 0.0049897267    95.723278    35.507826 
  996900     4958.229   0.33165794    24.955209 0.0076175022        0.125    10.082923 0.0048982832    95.317076    34.398018 
  997000    4958.7167   0.33248109    24.957901 0.0076175022        0.125    10.197118  0.004845361    94.492058     33.28825 
  997100    4959.1986   0.33345467    24.960655 0.0076175022        0.125    10.309134 0.0047919827     95.44444    32.178462 
  997200    4959.6754   0.33450785    24.963219 0.0076175022        0.125    10.428328 0.0047384933    95.311704     31.06869 
  997300    4960.1469   0.33353104    24.965711 0.0076175022        0.125    10.546205 0.0046867432    95.861392    29.958914 
  997400    4960.6133   0.33248231    24.968456 0.0076175022        0.125    10.665574   0.00463367     94.53314     28.84919 
  997500    4961.0742   0.33258279    24.970555 0.0076175022        0.125    10.801055 0.0045668509    95.452086    27.739451 
  997600     4961.547   0.33252318    24.972756 0.0076175022        0.125    9.3123392 0.0046676806    95.619948    26.629719 
  997700     4962.012   0.33289991    24.975267 0.0076175022        0.125    9.4329173 0.0046247929    95.721814    25.519998 
  997800    4962.4723   0.33356328    24.977926 0.0076175022        0.125    9.5739742 0.0045822431    95.126557    24.410304 
  997900    4962.9286   0.33266108    24.979992 0.0076175022        0.125    9.6927757 0.0045402648    95.608963    23.300611 
  998000    4963.3808    0.3340828    24.982205 0.0076175022        0.125      9.81448  0.004496369    94.518057    22.190955 
  998100    4963.8282    0.3327403    24.985412 0.0076175022        0.125    10.012718  0.004455481    95.676834    21.081284 
  998200     4964.272   0.33353472    24.987831 0.0076175022        0.125    10.119368   0.00441705    95.570425    19.971629 
  998300    4964.7095   0.33243464    24.990299 0.0076175022        0.125    9.7518345 0.0043302078    96.607334    18.861968 
  998400    4965.1407   0.33205556    24.992713 0.0076175022        0.125    9.8787926  0.004258125    93.404607    17.752378 
  998500    4965.6217   0.33308961    24.995155 0.0076175022        0.125    9.9473049  0.004959921    98.733158    16.642709 
  998600    4966.1178   0.33233473    24.997817 0.0076175022        0.125    10.083181  0.004954907    98.423161    15.533064 
  998700    4966.6106    0.3324401    25.000129 0.0076175022        0.125    10.205753 0.0048954724    95.642886    14.423476 
  998800    4967.0976    0.3323385    25.002966 0.0076175022        0.125    10.327488 0.0048378537    95.287561    13.313906 
  998900    4967.5788     0.333348    25.005397 0.0076175022        0.125    10.447804 0.0047822224    95.717686    12.204342 
  999000    4968.0546   0.33385684    25.007966 0.0076175022        0.125    10.566751  0.004728467    93.729851    11.094814 
  999100    4968.5251   0.33538511    25.010656 0.0076175022        0.125    10.684374 0.0046764843    94.350748    9.9852879 
  999200    4968.9904   0.33336044     25.01333 0.0076175022        0.125    10.801289 0.0046254785    95.753435    8.8757593 
  999300    4969.4507   0.33454085    25.015603 0.0076175022        0.125    10.916375 0.0045767889    96.105776    7.7662411 
  999400     4969.906   0.33458947    25.017809 0.0076175022        0.125    11.041665 0.0045247591     95.80444    6.6567387 
  999500    4970.3558   0.33382078    25.019943 0.0076175022        0.125     11.16943 0.0044726532    95.953631    5.5472486 
  999600    4970.8011   0.33334968    25.022084 0.0076175022        0.125    11.276195 0.0044302279    94.755481    4.4377772 
  999700    4971.2422   0.33426456    25.023817 0.0076175022        0.125    11.386466 0.0043873979     95.19314    3.3283152 
  999800    4971.6776   0.33333065    25.026061 0.0076175022        0.125    11.495311 0.0042874051    95.647815     2.218864 
  999900    4972.1051   0.33471529    25.028129 0.0076175022        0.125    11.651504 0.0042582365     96.06325    1.1094252 
 1000000    4972.5296   0.33389087     25.03011 0.0076175022        0.125    11.259955 0.0042271006      95.6879            0 
Loop time of 11094.2 on 4 procs for 1000000 steps with 174511 atoms

Performance: 32920.076 tau/day, 90.137 timesteps/s
232.2% CPU use with 1 MPI tasks x 4 OpenMP threads

MPI task timing breakdown:
Section |  min time  |  avg time  |  max time  |%varavg| %total
---------------------------------------------------------------
Pair    | 3476.7     | 3476.7     | 3476.7     |   0.0 | 31.34
Neigh   | 144.07     | 144.07     | 144.07     |   0.0 |  1.30
Comm    | 1211.6     | 1211.6     | 1211.6     |   0.0 | 10.92
Output  | 27.668     | 27.668     | 27.668     |   0.0 |  0.25
Modify  | 5625.6     | 5625.6     | 5625.6     |   0.0 | 50.71
Other   |            | 608.5      |            |       |  5.48

Nlocal:    174511 ave 174511 max 174511 min
Histogram: 1 0 0 0 0 0 0 0 0 0
Nghost:    66632 ave 66632 max 66632 min
Histogram: 1 0 0 0 0 0 0 0 0 0
Neighs:    0 ave 0 max 0 min
Histogram: 1 0 0 0 0 0 0 0 0 0

Total # of neighbors = 0
Ave neighs/atom = 0
Neighbor list builds = 324301
Dangerous builds = 0

Please see the log.cite file for references relevant to this simulation

Total wall time: 3:05:42
